

 Parallel Execution: Process Information
 ==============================================================================
 Rank   Node Name                              NodeID   MyNodeRank  NodeMaster
    0   aguirre-XPS-13-7390                       0          0          0
    1   aguirre-XPS-13-7390                       0          1         -1
    2   aguirre-XPS-13-7390                       0          2         -1
    3   aguirre-XPS-13-7390                       0          3         -1
 ==============================================================================


May use up to 7486MB of RAM as shared memory on node 0
Floating license: not using directory 
Floating license: not using directory 
Floating license: not using directory 
Floating license: not using directory 

 *******************************************************************************
 *                                                                             *
 *  --------------------------------                                           *
 *   Amsterdam Modeling Suite (AMS)              2022.202                      *
 *  --------------------------------                                           *
 *                                               r103460 2022-04-18            *
 *                                                                             *
 *                                                                             *
 *                              =================                              *
 *                              |               |                              *
 *                              |     A M S     |                              *
 *                              |               |                              *
 *                              =================                              *
 *                                                                             *
 *                                                                             *
 *   Online information and documentation:  https://www.scm.com/support/       *
 *   E-mail:  support@scm.com   info@scm.com                                   *
 *                                                                             *
 *   Scientific publications using AMS results must be properly referenced     *
 *   See the User Manuals (or the web site) for recommended citations          *
 *   The terms and conditions of the End User License Agreement apply to       *
 *   the use of AMS, https://www.scm.com/license-terms/                        *
 *                                                                             *
 ***********************  x86_64_linux_gnu7 / intelmpi  ************************
 
 Licensed to: Dr. Nestor Aguirre Castiblanco  / SCM / Amsterdam / NETHERLANDS 2022-01-24 09:33:25
 SCM User ID: u22021
  
 AMS 2022.202  RunTime: Apr20-2022 17:13:05  ShM Nodes: 1  Procs: 4

 AMS jobname: PESExploration
 AMS jobid  : 1148211784

 Start   directory: /home/aguirre/Develop/pyzacros/test_RKFLoader/PESExploration/
 Results directory: /home/aguirre/Develop/pyzacros/test_RKFLoader/PESExploration/
 Scratch directory: /scratch/aguirre/amstmp_PESExploration_kid0.1148211784/


 Communication costs MPI_COMM_WORLD:      0.319 usec per message,   0.0038 usec per 8-byte item
 Communication costs for intra-node:      0.285 usec per message,   0.0043 usec per 8-byte item

 RNG seed: -1721238868 -614020275 286932819 -1221967395 599874279 -2057649264 1101653631 -857236175
 MPI rank    0: Number of processors available to this process:      2
 MPI rank    0: Default max number of OpenMP threads:                2
 MPI rank    0: The OMP_NUM_THREADS environment variable is not set!
 MPI rank    0: Restrict max number of OpenMP threads to:            1
Force field identifier: Reactive MD-force field: C/H/O/N/S/F/Pt/
 Triple bond stabilization enabled for C-O only
 Non-bonding interaction type[nonbontype]:
 No inner wall, shielding
 Warning:changed vval3 to valf for X 
       ***************************
       *  GEOMETRY OPTIMIZATION  *
       ***************************

FIRE optimizer config
       nMin:  5 steps
    dtStart:  0.2500 fs
      dtMax:  0.5000 fs
       fInc:  1.1000
       fDec:  0.5000
 alphaStart:  0.1000
     fAlpha:  0.9900
 Opt. latt.:  F
Convergence criteria:
       Energy:  0.000010 Ha per atom
    Gradients:  0.000004 Ha/Angstrom
         Step:  0.010000 Angstrom
Stress energy:  0.000500 Ha per atom

Relaxing 3 nuclear degrees of freedom with FIRE.
 Rigid motions settings for: FIRE
 Atomic rotations (x,y,z):     F F F
 Atomic translations (x,y,z):  F F F
 Tolerance:                    9.9999999999999995E-007
Rank   volume(%)   N atoms
   0       12.71         9
   1       15.89         9
   2       31.74         9
   3       39.66        10
Unit cell division (XYZ):    2    1    2
My region size in cell units  0.44450000  1.00000000  0.28600000
Ghost region in cell units    1.73574953  1.73574954  1.57656983
Total space in cell units     3.91599907  4.47149907  3.43913967
 Local atoms:           9 , including ghost atoms:          37
 Local Verlet list:        1199 local (incl my-other) pairs,        54 self-pairs       934 foreign my-other pairs,      1037 foreign other-other pairs

Geometry at FIRE step 1:

--------
Geometry
--------
Formula: OPt36
Atoms
  Index Symbol   x (angstrom)   y (angstrom)   z (angstrom)
      1      O     5.54004578     1.60483586     8.92740638       region=adsorbate
      2     Pt     8.31521714     4.80239136     7.78926430       region=surface
      3     Pt     5.54298786     0.00160612     7.79128800       region=surface
      4     Pt     6.92910250     2.40199874     7.79027615       region=surface
      5     Pt    11.08707571     4.80244586     7.78854885       region=surface
      6     Pt     8.31484643     0.00166062     7.79057254       region=surface
      7     Pt     9.70096096     2.40178486     7.79068672       region=surface
      8     Pt     5.54335868     4.80260524     7.78885374       region=surface
      9     Pt     2.77112940     0.00182001     7.79087743       region=surface
     10     Pt     4.15724404     2.40221263     7.78986559       region=surface
     11     Pt     9.70154331     5.60130339     5.52585419       region=surface
     12     Pt     6.92931403     0.80051815     5.52787789       region=surface
     13     Pt     8.31542867     3.20091077     5.52686604       region=surface
     14     Pt     4.15782639     5.60173116     5.52503306       region=surface
     15     Pt     1.38559711     0.80094593     5.52705675       region=surface
     16     Pt     2.77171175     3.20133854     5.52604491       region=surface
     17     Pt     6.92968485     5.60151727     5.52544363       region=surface
     18     Pt     4.15745557     0.80073204     5.52746732       region=surface
     19     Pt     5.54357021     3.20112466     5.52645547       region=surface
     20     Pt     6.92989639     4.00003668     3.26303536       region=surface
     21     Pt     8.31601103     6.40042930     3.26202352       region=surface
     22     Pt     5.54378174     1.59964406     3.26404721       region=surface
     23     Pt     9.70175484     3.99982280     3.26344593       region=surface
     24     Pt    11.08786948     6.40021541     3.26243408       region=surface
     25     Pt     8.31564020     1.59943018     3.26445778       region=surface
     26     Pt     4.15803792     4.00025057     3.26262480       region=surface
     27     Pt     5.54415256     6.40064318     3.26161295       region=surface
     28     Pt     2.77192328     1.59985795     3.26363664       region=surface
     29     Pt     1.38639089     2.39871548     1.00094199       region=surface
     30     Pt     5.54436409     4.79916260     0.99921469       region=surface
     31     Pt     6.93024583     7.19969029     1.00043291       region=surface
     32     Pt     4.15824945     2.39876998     1.00022653       region=surface
     33     Pt     8.31622256     4.79894871     0.99962525       region=surface
     34     Pt     9.70210429     7.19947641     1.00084348       region=surface
     35     Pt     6.93010792     2.39855609     1.00063710       region=surface
     36     Pt     2.77250564     4.79937648     0.99880412       region=surface
     37     Pt     4.15838737     7.19990418     1.00002234       region=surface

Lattice vectors (angstrom)
      1     8.31557575     0.00000000     0.00000000
      2     4.15778787     7.20149984     0.00000000

Unit cell area (angstrom^2)        59.88462

Total System Charge             0.00000


Geometry at FIRE step 2:

--------
Geometry
--------
Formula: OPt36
Atoms
  Index Symbol   x (angstrom)   y (angstrom)   z (angstrom)
      1      O     5.54006496     1.60482078     8.92739721       region=adsorbate
      2     Pt     8.31521714     4.80239136     7.78926430       region=surface
      3     Pt     5.54298786     0.00160612     7.79128800       region=surface
      4     Pt     6.92910250     2.40199874     7.79027615       region=surface
      5     Pt    11.08707571     4.80244586     7.78854885       region=surface
      6     Pt     8.31484643     0.00166062     7.79057254       region=surface
      7     Pt     9.70096096     2.40178486     7.79068672       region=surface
      8     Pt     5.54335868     4.80260524     7.78885374       region=surface
      9     Pt     2.77112940     0.00182001     7.79087743       region=surface
     10     Pt     4.15724404     2.40221263     7.78986559       region=surface
     11     Pt     9.70154331     5.60130339     5.52585419       region=surface
     12     Pt     6.92931403     0.80051815     5.52787789       region=surface
     13     Pt     8.31542867     3.20091077     5.52686604       region=surface
     14     Pt     4.15782639     5.60173116     5.52503306       region=surface
     15     Pt     1.38559711     0.80094593     5.52705675       region=surface
     16     Pt     2.77171175     3.20133854     5.52604491       region=surface
     17     Pt     6.92968485     5.60151727     5.52544363       region=surface
     18     Pt     4.15745557     0.80073204     5.52746732       region=surface
     19     Pt     5.54357021     3.20112466     5.52645547       region=surface
     20     Pt     6.92989639     4.00003668     3.26303536       region=surface
     21     Pt     8.31601103     6.40042930     3.26202352       region=surface
     22     Pt     5.54378174     1.59964406     3.26404721       region=surface
     23     Pt     9.70175484     3.99982280     3.26344593       region=surface
     24     Pt    11.08786948     6.40021541     3.26243408       region=surface
     25     Pt     8.31564020     1.59943018     3.26445778       region=surface
     26     Pt     4.15803792     4.00025057     3.26262480       region=surface
     27     Pt     5.54415256     6.40064318     3.26161295       region=surface
     28     Pt     2.77192328     1.59985795     3.26363664       region=surface
     29     Pt     1.38639089     2.39871548     1.00094199       region=surface
     30     Pt     5.54436409     4.79916260     0.99921469       region=surface
     31     Pt     6.93024583     7.19969029     1.00043291       region=surface
     32     Pt     4.15824945     2.39876998     1.00022653       region=surface
     33     Pt     8.31622256     4.79894871     0.99962525       region=surface
     34     Pt     9.70210429     7.19947641     1.00084348       region=surface
     35     Pt     6.93010792     2.39855609     1.00063710       region=surface
     36     Pt     2.77250564     4.79937648     0.99880412       region=surface
     37     Pt     4.15838737     7.19990418     1.00002234       region=surface

Lattice vectors (angstrom)
      1     8.31557575     0.00000000     0.00000000
      2     4.15778787     7.20149984     0.00000000

Unit cell area (angstrom^2)        59.88462

Total System Charge             0.00000


Geometry at FIRE step 3:

--------
Geometry
--------
Formula: OPt36
Atoms
  Index Symbol   x (angstrom)   y (angstrom)   z (angstrom)
      1      O     5.54009686     1.60479572     8.92738211       region=adsorbate
      2     Pt     8.31521714     4.80239136     7.78926430       region=surface
      3     Pt     5.54298786     0.00160612     7.79128800       region=surface
      4     Pt     6.92910250     2.40199874     7.79027615       region=surface
      5     Pt    11.08707571     4.80244586     7.78854885       region=surface
      6     Pt     8.31484643     0.00166062     7.79057254       region=surface
      7     Pt     9.70096096     2.40178486     7.79068672       region=surface
      8     Pt     5.54335868     4.80260524     7.78885374       region=surface
      9     Pt     2.77112940     0.00182001     7.79087743       region=surface
     10     Pt     4.15724404     2.40221263     7.78986559       region=surface
     11     Pt     9.70154331     5.60130339     5.52585419       region=surface
     12     Pt     6.92931403     0.80051815     5.52787789       region=surface
     13     Pt     8.31542867     3.20091077     5.52686604       region=surface
     14     Pt     4.15782639     5.60173116     5.52503306       region=surface
     15     Pt     1.38559711     0.80094593     5.52705675       region=surface
     16     Pt     2.77171175     3.20133854     5.52604491       region=surface
     17     Pt     6.92968485     5.60151727     5.52544363       region=surface
     18     Pt     4.15745557     0.80073204     5.52746732       region=surface
     19     Pt     5.54357021     3.20112466     5.52645547       region=surface
     20     Pt     6.92989639     4.00003668     3.26303536       region=surface
     21     Pt     8.31601103     6.40042930     3.26202352       region=surface
     22     Pt     5.54378174     1.59964406     3.26404721       region=surface
     23     Pt     9.70175484     3.99982280     3.26344593       region=surface
     24     Pt    11.08786948     6.40021541     3.26243408       region=surface
     25     Pt     8.31564020     1.59943018     3.26445778       region=surface
     26     Pt     4.15803792     4.00025057     3.26262480       region=surface
     27     Pt     5.54415256     6.40064318     3.26161295       region=surface
     28     Pt     2.77192328     1.59985795     3.26363664       region=surface
     29     Pt     1.38639089     2.39871548     1.00094199       region=surface
     30     Pt     5.54436409     4.79916260     0.99921469       region=surface
     31     Pt     6.93024583     7.19969029     1.00043291       region=surface
     32     Pt     4.15824945     2.39876998     1.00022653       region=surface
     33     Pt     8.31622256     4.79894871     0.99962525       region=surface
     34     Pt     9.70210429     7.19947641     1.00084348       region=surface
     35     Pt     6.93010792     2.39855609     1.00063710       region=surface
     36     Pt     2.77250564     4.79937648     0.99880412       region=surface
     37     Pt     4.15838737     7.19990418     1.00002234       region=surface

Lattice vectors (angstrom)
      1     8.31557575     0.00000000     0.00000000
      2     4.15778787     7.20149984     0.00000000

Unit cell area (angstrom^2)        59.88462

Total System Charge             0.00000


Geometry at FIRE step 4:

--------
Geometry
--------
Formula: OPt36
Atoms
  Index Symbol   x (angstrom)   y (angstrom)   z (angstrom)
      1      O     5.54014132     1.60476078     8.92736135       region=adsorbate
      2     Pt     8.31521714     4.80239136     7.78926430       region=surface
      3     Pt     5.54298786     0.00160612     7.79128800       region=surface
      4     Pt     6.92910250     2.40199874     7.79027615       region=surface
      5     Pt    11.08707571     4.80244586     7.78854885       region=surface
      6     Pt     8.31484643     0.00166062     7.79057254       region=surface
      7     Pt     9.70096096     2.40178486     7.79068672       region=surface
      8     Pt     5.54335868     4.80260524     7.78885374       region=surface
      9     Pt     2.77112940     0.00182001     7.79087743       region=surface
     10     Pt     4.15724404     2.40221263     7.78986559       region=surface
     11     Pt     9.70154331     5.60130339     5.52585419       region=surface
     12     Pt     6.92931403     0.80051815     5.52787789       region=surface
     13     Pt     8.31542867     3.20091077     5.52686604       region=surface
     14     Pt     4.15782639     5.60173116     5.52503306       region=surface
     15     Pt     1.38559711     0.80094593     5.52705675       region=surface
     16     Pt     2.77171175     3.20133854     5.52604491       region=surface
     17     Pt     6.92968485     5.60151727     5.52544363       region=surface
     18     Pt     4.15745557     0.80073204     5.52746732       region=surface
     19     Pt     5.54357021     3.20112466     5.52645547       region=surface
     20     Pt     6.92989639     4.00003668     3.26303536       region=surface
     21     Pt     8.31601103     6.40042930     3.26202352       region=surface
     22     Pt     5.54378174     1.59964406     3.26404721       region=surface
     23     Pt     9.70175484     3.99982280     3.26344593       region=surface
     24     Pt    11.08786948     6.40021541     3.26243408       region=surface
     25     Pt     8.31564020     1.59943018     3.26445778       region=surface
     26     Pt     4.15803792     4.00025057     3.26262480       region=surface
     27     Pt     5.54415256     6.40064318     3.26161295       region=surface
     28     Pt     2.77192328     1.59985795     3.26363664       region=surface
     29     Pt     1.38639089     2.39871548     1.00094199       region=surface
     30     Pt     5.54436409     4.79916260     0.99921469       region=surface
     31     Pt     6.93024583     7.19969029     1.00043291       region=surface
     32     Pt     4.15824945     2.39876998     1.00022653       region=surface
     33     Pt     8.31622256     4.79894871     0.99962525       region=surface
     34     Pt     9.70210429     7.19947641     1.00084348       region=surface
     35     Pt     6.93010792     2.39855609     1.00063710       region=surface
     36     Pt     2.77250564     4.79937648     0.99880412       region=surface
     37     Pt     4.15838737     7.19990418     1.00002234       region=surface

Lattice vectors (angstrom)
      1     8.31557575     0.00000000     0.00000000
      2     4.15778787     7.20149984     0.00000000

Unit cell area (angstrom^2)        59.88462

Total System Charge             0.00000


Geometry at FIRE step 5:

--------
Geometry
--------
Formula: OPt36
Atoms
  Index Symbol   x (angstrom)   y (angstrom)   z (angstrom)
      1      O     5.54019819     1.60471610     8.92733538       region=adsorbate
      2     Pt     8.31521714     4.80239136     7.78926430       region=surface
      3     Pt     5.54298786     0.00160612     7.79128800       region=surface
      4     Pt     6.92910250     2.40199874     7.79027615       region=surface
      5     Pt    11.08707571     4.80244586     7.78854885       region=surface
      6     Pt     8.31484643     0.00166062     7.79057254       region=surface
      7     Pt     9.70096096     2.40178486     7.79068672       region=surface
      8     Pt     5.54335868     4.80260524     7.78885374       region=surface
      9     Pt     2.77112940     0.00182001     7.79087743       region=surface
     10     Pt     4.15724404     2.40221263     7.78986559       region=surface
     11     Pt     9.70154331     5.60130339     5.52585419       region=surface
     12     Pt     6.92931403     0.80051815     5.52787789       region=surface
     13     Pt     8.31542867     3.20091077     5.52686604       region=surface
     14     Pt     4.15782639     5.60173116     5.52503306       region=surface
     15     Pt     1.38559711     0.80094593     5.52705675       region=surface
     16     Pt     2.77171175     3.20133854     5.52604491       region=surface
     17     Pt     6.92968485     5.60151727     5.52544363       region=surface
     18     Pt     4.15745557     0.80073204     5.52746732       region=surface
     19     Pt     5.54357021     3.20112466     5.52645547       region=surface
     20     Pt     6.92989639     4.00003668     3.26303536       region=surface
     21     Pt     8.31601103     6.40042930     3.26202352       region=surface
     22     Pt     5.54378174     1.59964406     3.26404721       region=surface
     23     Pt     9.70175484     3.99982280     3.26344593       region=surface
     24     Pt    11.08786948     6.40021541     3.26243408       region=surface
     25     Pt     8.31564020     1.59943018     3.26445778       region=surface
     26     Pt     4.15803792     4.00025057     3.26262480       region=surface
     27     Pt     5.54415256     6.40064318     3.26161295       region=surface
     28     Pt     2.77192328     1.59985795     3.26363664       region=surface
     29     Pt     1.38639089     2.39871548     1.00094199       region=surface
     30     Pt     5.54436409     4.79916260     0.99921469       region=surface
     31     Pt     6.93024583     7.19969029     1.00043291       region=surface
     32     Pt     4.15824945     2.39876998     1.00022653       region=surface
     33     Pt     8.31622256     4.79894871     0.99962525       region=surface
     34     Pt     9.70210429     7.19947641     1.00084348       region=surface
     35     Pt     6.93010792     2.39855609     1.00063710       region=surface
     36     Pt     2.77250564     4.79937648     0.99880412       region=surface
     37     Pt     4.15838737     7.19990418     1.00002234       region=surface

Lattice vectors (angstrom)
      1     8.31557575     0.00000000     0.00000000
      2     4.15778787     7.20149984     0.00000000

Unit cell area (angstrom^2)        59.88462

Total System Charge             0.00000


Geometry at FIRE step 6:

--------
Geometry
--------
Formula: OPt36
Atoms
  Index Symbol   x (angstrom)   y (angstrom)   z (angstrom)
      1      O     5.54026723     1.60466185     8.92730472       region=adsorbate
      2     Pt     8.31521714     4.80239136     7.78926430       region=surface
      3     Pt     5.54298786     0.00160612     7.79128800       region=surface
      4     Pt     6.92910250     2.40199874     7.79027615       region=surface
      5     Pt    11.08707571     4.80244586     7.78854885       region=surface
      6     Pt     8.31484643     0.00166062     7.79057254       region=surface
      7     Pt     9.70096096     2.40178486     7.79068672       region=surface
      8     Pt     5.54335868     4.80260524     7.78885374       region=surface
      9     Pt     2.77112940     0.00182001     7.79087743       region=surface
     10     Pt     4.15724404     2.40221263     7.78986559       region=surface
     11     Pt     9.70154331     5.60130339     5.52585419       region=surface
     12     Pt     6.92931403     0.80051815     5.52787789       region=surface
     13     Pt     8.31542867     3.20091077     5.52686604       region=surface
     14     Pt     4.15782639     5.60173116     5.52503306       region=surface
     15     Pt     1.38559711     0.80094593     5.52705675       region=surface
     16     Pt     2.77171175     3.20133854     5.52604491       region=surface
     17     Pt     6.92968485     5.60151727     5.52544363       region=surface
     18     Pt     4.15745557     0.80073204     5.52746732       region=surface
     19     Pt     5.54357021     3.20112466     5.52645547       region=surface
     20     Pt     6.92989639     4.00003668     3.26303536       region=surface
     21     Pt     8.31601103     6.40042930     3.26202352       region=surface
     22     Pt     5.54378174     1.59964406     3.26404721       region=surface
     23     Pt     9.70175484     3.99982280     3.26344593       region=surface
     24     Pt    11.08786948     6.40021541     3.26243408       region=surface
     25     Pt     8.31564020     1.59943018     3.26445778       region=surface
     26     Pt     4.15803792     4.00025057     3.26262480       region=surface
     27     Pt     5.54415256     6.40064318     3.26161295       region=surface
     28     Pt     2.77192328     1.59985795     3.26363664       region=surface
     29     Pt     1.38639089     2.39871548     1.00094199       region=surface
     30     Pt     5.54436409     4.79916260     0.99921469       region=surface
     31     Pt     6.93024583     7.19969029     1.00043291       region=surface
     32     Pt     4.15824945     2.39876998     1.00022653       region=surface
     33     Pt     8.31622256     4.79894871     0.99962525       region=surface
     34     Pt     9.70210429     7.19947641     1.00084348       region=surface
     35     Pt     6.93010792     2.39855609     1.00063710       region=surface
     36     Pt     2.77250564     4.79937648     0.99880412       region=surface
     37     Pt     4.15838737     7.19990418     1.00002234       region=surface

Lattice vectors (angstrom)
      1     8.31557575     0.00000000     0.00000000
      2     4.15778787     7.20149984     0.00000000

Unit cell area (angstrom^2)        59.88462

Total System Charge             0.00000


Geometry at FIRE step 7:

--------
Geometry
--------
Formula: OPt36
Atoms
  Index Symbol   x (angstrom)   y (angstrom)   z (angstrom)
      1      O     5.54035695     1.60459137     8.92726637       region=adsorbate
      2     Pt     8.31521714     4.80239136     7.78926430       region=surface
      3     Pt     5.54298786     0.00160612     7.79128800       region=surface
      4     Pt     6.92910250     2.40199874     7.79027615       region=surface
      5     Pt    11.08707571     4.80244586     7.78854885       region=surface
      6     Pt     8.31484643     0.00166062     7.79057254       region=surface
      7     Pt     9.70096096     2.40178486     7.79068672       region=surface
      8     Pt     5.54335868     4.80260524     7.78885374       region=surface
      9     Pt     2.77112940     0.00182001     7.79087743       region=surface
     10     Pt     4.15724404     2.40221263     7.78986559       region=surface
     11     Pt     9.70154331     5.60130339     5.52585419       region=surface
     12     Pt     6.92931403     0.80051815     5.52787789       region=surface
     13     Pt     8.31542867     3.20091077     5.52686604       region=surface
     14     Pt     4.15782639     5.60173116     5.52503306       region=surface
     15     Pt     1.38559711     0.80094593     5.52705675       region=surface
     16     Pt     2.77171175     3.20133854     5.52604491       region=surface
     17     Pt     6.92968485     5.60151727     5.52544363       region=surface
     18     Pt     4.15745557     0.80073204     5.52746732       region=surface
     19     Pt     5.54357021     3.20112466     5.52645547       region=surface
     20     Pt     6.92989639     4.00003668     3.26303536       region=surface
     21     Pt     8.31601103     6.40042930     3.26202352       region=surface
     22     Pt     5.54378174     1.59964406     3.26404721       region=surface
     23     Pt     9.70175484     3.99982280     3.26344593       region=surface
     24     Pt    11.08786948     6.40021541     3.26243408       region=surface
     25     Pt     8.31564020     1.59943018     3.26445778       region=surface
     26     Pt     4.15803792     4.00025057     3.26262480       region=surface
     27     Pt     5.54415256     6.40064318     3.26161295       region=surface
     28     Pt     2.77192328     1.59985795     3.26363664       region=surface
     29     Pt     1.38639089     2.39871548     1.00094199       region=surface
     30     Pt     5.54436409     4.79916260     0.99921469       region=surface
     31     Pt     6.93024583     7.19969029     1.00043291       region=surface
     32     Pt     4.15824945     2.39876998     1.00022653       region=surface
     33     Pt     8.31622256     4.79894871     0.99962525       region=surface
     34     Pt     9.70210429     7.19947641     1.00084348       region=surface
     35     Pt     6.93010792     2.39855609     1.00063710       region=surface
     36     Pt     2.77250564     4.79937648     0.99880412       region=surface
     37     Pt     4.15838737     7.19990418     1.00002234       region=surface

Lattice vectors (angstrom)
      1     8.31557575     0.00000000     0.00000000
      2     4.15778787     7.20149984     0.00000000

Unit cell area (angstrom^2)        59.88462

Total System Charge             0.00000


Geometry at FIRE step 8:

--------
Geometry
--------
Formula: OPt36
Atoms
  Index Symbol   x (angstrom)   y (angstrom)   z (angstrom)
      1      O     5.54047179     1.60450114     8.92721974       region=adsorbate
      2     Pt     8.31521714     4.80239136     7.78926430       region=surface
      3     Pt     5.54298786     0.00160612     7.79128800       region=surface
      4     Pt     6.92910250     2.40199874     7.79027615       region=surface
      5     Pt    11.08707571     4.80244586     7.78854885       region=surface
      6     Pt     8.31484643     0.00166062     7.79057254       region=surface
      7     Pt     9.70096096     2.40178486     7.79068672       region=surface
      8     Pt     5.54335868     4.80260524     7.78885374       region=surface
      9     Pt     2.77112940     0.00182001     7.79087743       region=surface
     10     Pt     4.15724404     2.40221263     7.78986559       region=surface
     11     Pt     9.70154331     5.60130339     5.52585419       region=surface
     12     Pt     6.92931403     0.80051815     5.52787789       region=surface
     13     Pt     8.31542867     3.20091077     5.52686604       region=surface
     14     Pt     4.15782639     5.60173116     5.52503306       region=surface
     15     Pt     1.38559711     0.80094593     5.52705675       region=surface
     16     Pt     2.77171175     3.20133854     5.52604491       region=surface
     17     Pt     6.92968485     5.60151727     5.52544363       region=surface
     18     Pt     4.15745557     0.80073204     5.52746732       region=surface
     19     Pt     5.54357021     3.20112466     5.52645547       region=surface
     20     Pt     6.92989639     4.00003668     3.26303536       region=surface
     21     Pt     8.31601103     6.40042930     3.26202352       region=surface
     22     Pt     5.54378174     1.59964406     3.26404721       region=surface
     23     Pt     9.70175484     3.99982280     3.26344593       region=surface
     24     Pt    11.08786948     6.40021541     3.26243408       region=surface
     25     Pt     8.31564020     1.59943018     3.26445778       region=surface
     26     Pt     4.15803792     4.00025057     3.26262480       region=surface
     27     Pt     5.54415256     6.40064318     3.26161295       region=surface
     28     Pt     2.77192328     1.59985795     3.26363664       region=surface
     29     Pt     1.38639089     2.39871548     1.00094199       region=surface
     30     Pt     5.54436409     4.79916260     0.99921469       region=surface
     31     Pt     6.93024583     7.19969029     1.00043291       region=surface
     32     Pt     4.15824945     2.39876998     1.00022653       region=surface
     33     Pt     8.31622256     4.79894871     0.99962525       region=surface
     34     Pt     9.70210429     7.19947641     1.00084348       region=surface
     35     Pt     6.93010792     2.39855609     1.00063710       region=surface
     36     Pt     2.77250564     4.79937648     0.99880412       region=surface
     37     Pt     4.15838737     7.19990418     1.00002234       region=surface

Lattice vectors (angstrom)
      1     8.31557575     0.00000000     0.00000000
      2     4.15778787     7.20149984     0.00000000

Unit cell area (angstrom^2)        59.88462

Total System Charge             0.00000


Geometry at FIRE step 9:

--------
Geometry
--------
Formula: OPt36
Atoms
  Index Symbol   x (angstrom)   y (angstrom)   z (angstrom)
      1      O     5.54061687     1.60438715     8.92716483       region=adsorbate
      2     Pt     8.31521714     4.80239136     7.78926430       region=surface
      3     Pt     5.54298786     0.00160612     7.79128800       region=surface
      4     Pt     6.92910250     2.40199874     7.79027615       region=surface
      5     Pt    11.08707571     4.80244586     7.78854885       region=surface
      6     Pt     8.31484643     0.00166062     7.79057254       region=surface
      7     Pt     9.70096096     2.40178486     7.79068672       region=surface
      8     Pt     5.54335868     4.80260524     7.78885374       region=surface
      9     Pt     2.77112940     0.00182001     7.79087743       region=surface
     10     Pt     4.15724404     2.40221263     7.78986559       region=surface
     11     Pt     9.70154331     5.60130339     5.52585419       region=surface
     12     Pt     6.92931403     0.80051815     5.52787789       region=surface
     13     Pt     8.31542867     3.20091077     5.52686604       region=surface
     14     Pt     4.15782639     5.60173116     5.52503306       region=surface
     15     Pt     1.38559711     0.80094593     5.52705675       region=surface
     16     Pt     2.77171175     3.20133854     5.52604491       region=surface
     17     Pt     6.92968485     5.60151727     5.52544363       region=surface
     18     Pt     4.15745557     0.80073204     5.52746732       region=surface
     19     Pt     5.54357021     3.20112466     5.52645547       region=surface
     20     Pt     6.92989639     4.00003668     3.26303536       region=surface
     21     Pt     8.31601103     6.40042930     3.26202352       region=surface
     22     Pt     5.54378174     1.59964406     3.26404721       region=surface
     23     Pt     9.70175484     3.99982280     3.26344593       region=surface
     24     Pt    11.08786948     6.40021541     3.26243408       region=surface
     25     Pt     8.31564020     1.59943018     3.26445778       region=surface
     26     Pt     4.15803792     4.00025057     3.26262480       region=surface
     27     Pt     5.54415256     6.40064318     3.26161295       region=surface
     28     Pt     2.77192328     1.59985795     3.26363664       region=surface
     29     Pt     1.38639089     2.39871548     1.00094199       region=surface
     30     Pt     5.54436409     4.79916260     0.99921469       region=surface
     31     Pt     6.93024583     7.19969029     1.00043291       region=surface
     32     Pt     4.15824945     2.39876998     1.00022653       region=surface
     33     Pt     8.31622256     4.79894871     0.99962525       region=surface
     34     Pt     9.70210429     7.19947641     1.00084348       region=surface
     35     Pt     6.93010792     2.39855609     1.00063710       region=surface
     36     Pt     2.77250564     4.79937648     0.99880412       region=surface
     37     Pt     4.15838737     7.19990418     1.00002234       region=surface

Lattice vectors (angstrom)
      1     8.31557575     0.00000000     0.00000000
      2     4.15778787     7.20149984     0.00000000

Unit cell area (angstrom^2)        59.88462

Total System Charge             0.00000


Geometry at FIRE step 10:

--------
Geometry
--------
Formula: OPt36
Atoms
  Index Symbol   x (angstrom)   y (angstrom)   z (angstrom)
      1      O     5.54079795     1.60424490     8.92710265       region=adsorbate
      2     Pt     8.31521714     4.80239136     7.78926430       region=surface
      3     Pt     5.54298786     0.00160612     7.79128800       region=surface
      4     Pt     6.92910250     2.40199874     7.79027615       region=surface
      5     Pt    11.08707571     4.80244586     7.78854885       region=surface
      6     Pt     8.31484643     0.00166062     7.79057254       region=surface
      7     Pt     9.70096096     2.40178486     7.79068672       region=surface
      8     Pt     5.54335868     4.80260524     7.78885374       region=surface
      9     Pt     2.77112940     0.00182001     7.79087743       region=surface
     10     Pt     4.15724404     2.40221263     7.78986559       region=surface
     11     Pt     9.70154331     5.60130339     5.52585419       region=surface
     12     Pt     6.92931403     0.80051815     5.52787789       region=surface
     13     Pt     8.31542867     3.20091077     5.52686604       region=surface
     14     Pt     4.15782639     5.60173116     5.52503306       region=surface
     15     Pt     1.38559711     0.80094593     5.52705675       region=surface
     16     Pt     2.77171175     3.20133854     5.52604491       region=surface
     17     Pt     6.92968485     5.60151727     5.52544363       region=surface
     18     Pt     4.15745557     0.80073204     5.52746732       region=surface
     19     Pt     5.54357021     3.20112466     5.52645547       region=surface
     20     Pt     6.92989639     4.00003668     3.26303536       region=surface
     21     Pt     8.31601103     6.40042930     3.26202352       region=surface
     22     Pt     5.54378174     1.59964406     3.26404721       region=surface
     23     Pt     9.70175484     3.99982280     3.26344593       region=surface
     24     Pt    11.08786948     6.40021541     3.26243408       region=surface
     25     Pt     8.31564020     1.59943018     3.26445778       region=surface
     26     Pt     4.15803792     4.00025057     3.26262480       region=surface
     27     Pt     5.54415256     6.40064318     3.26161295       region=surface
     28     Pt     2.77192328     1.59985795     3.26363664       region=surface
     29     Pt     1.38639089     2.39871548     1.00094199       region=surface
     30     Pt     5.54436409     4.79916260     0.99921469       region=surface
     31     Pt     6.93024583     7.19969029     1.00043291       region=surface
     32     Pt     4.15824945     2.39876998     1.00022653       region=surface
     33     Pt     8.31622256     4.79894871     0.99962525       region=surface
     34     Pt     9.70210429     7.19947641     1.00084348       region=surface
     35     Pt     6.93010792     2.39855609     1.00063710       region=surface
     36     Pt     2.77250564     4.79937648     0.99880412       region=surface
     37     Pt     4.15838737     7.19990418     1.00002234       region=surface

Lattice vectors (angstrom)
      1     8.31557575     0.00000000     0.00000000
      2     4.15778787     7.20149984     0.00000000

Unit cell area (angstrom^2)        59.88462

Total System Charge             0.00000


Geometry at FIRE step 11:

--------
Geometry
--------
Formula: OPt36
Atoms
  Index Symbol   x (angstrom)   y (angstrom)   z (angstrom)
      1      O     5.54102118     1.60406953     8.92703581       region=adsorbate
      2     Pt     8.31521714     4.80239136     7.78926430       region=surface
      3     Pt     5.54298786     0.00160612     7.79128800       region=surface
      4     Pt     6.92910250     2.40199874     7.79027615       region=surface
      5     Pt    11.08707571     4.80244586     7.78854885       region=surface
      6     Pt     8.31484643     0.00166062     7.79057254       region=surface
      7     Pt     9.70096096     2.40178486     7.79068672       region=surface
      8     Pt     5.54335868     4.80260524     7.78885374       region=surface
      9     Pt     2.77112940     0.00182001     7.79087743       region=surface
     10     Pt     4.15724404     2.40221263     7.78986559       region=surface
     11     Pt     9.70154331     5.60130339     5.52585419       region=surface
     12     Pt     6.92931403     0.80051815     5.52787789       region=surface
     13     Pt     8.31542867     3.20091077     5.52686604       region=surface
     14     Pt     4.15782639     5.60173116     5.52503306       region=surface
     15     Pt     1.38559711     0.80094593     5.52705675       region=surface
     16     Pt     2.77171175     3.20133854     5.52604491       region=surface
     17     Pt     6.92968485     5.60151727     5.52544363       region=surface
     18     Pt     4.15745557     0.80073204     5.52746732       region=surface
     19     Pt     5.54357021     3.20112466     5.52645547       region=surface
     20     Pt     6.92989639     4.00003668     3.26303536       region=surface
     21     Pt     8.31601103     6.40042930     3.26202352       region=surface
     22     Pt     5.54378174     1.59964406     3.26404721       region=surface
     23     Pt     9.70175484     3.99982280     3.26344593       region=surface
     24     Pt    11.08786948     6.40021541     3.26243408       region=surface
     25     Pt     8.31564020     1.59943018     3.26445778       region=surface
     26     Pt     4.15803792     4.00025057     3.26262480       region=surface
     27     Pt     5.54415256     6.40064318     3.26161295       region=surface
     28     Pt     2.77192328     1.59985795     3.26363664       region=surface
     29     Pt     1.38639089     2.39871548     1.00094199       region=surface
     30     Pt     5.54436409     4.79916260     0.99921469       region=surface
     31     Pt     6.93024583     7.19969029     1.00043291       region=surface
     32     Pt     4.15824945     2.39876998     1.00022653       region=surface
     33     Pt     8.31622256     4.79894871     0.99962525       region=surface
     34     Pt     9.70210429     7.19947641     1.00084348       region=surface
     35     Pt     6.93010792     2.39855609     1.00063710       region=surface
     36     Pt     2.77250564     4.79937648     0.99880412       region=surface
     37     Pt     4.15838737     7.19990418     1.00002234       region=surface

Lattice vectors (angstrom)
      1     8.31557575     0.00000000     0.00000000
      2     4.15778787     7.20149984     0.00000000

Unit cell area (angstrom^2)        59.88462

Total System Charge             0.00000


Geometry at FIRE step 12:

--------
Geometry
--------
Formula: OPt36
Atoms
  Index Symbol   x (angstrom)   y (angstrom)   z (angstrom)
      1      O     5.54129279     1.60385617     8.92696928       region=adsorbate
      2     Pt     8.31521714     4.80239136     7.78926430       region=surface
      3     Pt     5.54298786     0.00160612     7.79128800       region=surface
      4     Pt     6.92910250     2.40199874     7.79027615       region=surface
      5     Pt    11.08707571     4.80244586     7.78854885       region=surface
      6     Pt     8.31484643     0.00166062     7.79057254       region=surface
      7     Pt     9.70096096     2.40178486     7.79068672       region=surface
      8     Pt     5.54335868     4.80260524     7.78885374       region=surface
      9     Pt     2.77112940     0.00182001     7.79087743       region=surface
     10     Pt     4.15724404     2.40221263     7.78986559       region=surface
     11     Pt     9.70154331     5.60130339     5.52585419       region=surface
     12     Pt     6.92931403     0.80051815     5.52787789       region=surface
     13     Pt     8.31542867     3.20091077     5.52686604       region=surface
     14     Pt     4.15782639     5.60173116     5.52503306       region=surface
     15     Pt     1.38559711     0.80094593     5.52705675       region=surface
     16     Pt     2.77171175     3.20133854     5.52604491       region=surface
     17     Pt     6.92968485     5.60151727     5.52544363       region=surface
     18     Pt     4.15745557     0.80073204     5.52746732       region=surface
     19     Pt     5.54357021     3.20112466     5.52645547       region=surface
     20     Pt     6.92989639     4.00003668     3.26303536       region=surface
     21     Pt     8.31601103     6.40042930     3.26202352       region=surface
     22     Pt     5.54378174     1.59964406     3.26404721       region=surface
     23     Pt     9.70175484     3.99982280     3.26344593       region=surface
     24     Pt    11.08786948     6.40021541     3.26243408       region=surface
     25     Pt     8.31564020     1.59943018     3.26445778       region=surface
     26     Pt     4.15803792     4.00025057     3.26262480       region=surface
     27     Pt     5.54415256     6.40064318     3.26161295       region=surface
     28     Pt     2.77192328     1.59985795     3.26363664       region=surface
     29     Pt     1.38639089     2.39871548     1.00094199       region=surface
     30     Pt     5.54436409     4.79916260     0.99921469       region=surface
     31     Pt     6.93024583     7.19969029     1.00043291       region=surface
     32     Pt     4.15824945     2.39876998     1.00022653       region=surface
     33     Pt     8.31622256     4.79894871     0.99962525       region=surface
     34     Pt     9.70210429     7.19947641     1.00084348       region=surface
     35     Pt     6.93010792     2.39855609     1.00063710       region=surface
     36     Pt     2.77250564     4.79937648     0.99880412       region=surface
     37     Pt     4.15838737     7.19990418     1.00002234       region=surface

Lattice vectors (angstrom)
      1     8.31557575     0.00000000     0.00000000
      2     4.15778787     7.20149984     0.00000000

Unit cell area (angstrom^2)        59.88462

Total System Charge             0.00000


Geometry at FIRE step 13:

--------
Geometry
--------
Formula: OPt36
Atoms
  Index Symbol   x (angstrom)   y (angstrom)   z (angstrom)
      1      O     5.54161830     1.60360049     8.92691123       region=adsorbate
      2     Pt     8.31521714     4.80239136     7.78926430       region=surface
      3     Pt     5.54298786     0.00160612     7.79128800       region=surface
      4     Pt     6.92910250     2.40199874     7.79027615       region=surface
      5     Pt    11.08707571     4.80244586     7.78854885       region=surface
      6     Pt     8.31484643     0.00166062     7.79057254       region=surface
      7     Pt     9.70096096     2.40178486     7.79068672       region=surface
      8     Pt     5.54335868     4.80260524     7.78885374       region=surface
      9     Pt     2.77112940     0.00182001     7.79087743       region=surface
     10     Pt     4.15724404     2.40221263     7.78986559       region=surface
     11     Pt     9.70154331     5.60130339     5.52585419       region=surface
     12     Pt     6.92931403     0.80051815     5.52787789       region=surface
     13     Pt     8.31542867     3.20091077     5.52686604       region=surface
     14     Pt     4.15782639     5.60173116     5.52503306       region=surface
     15     Pt     1.38559711     0.80094593     5.52705675       region=surface
     16     Pt     2.77171175     3.20133854     5.52604491       region=surface
     17     Pt     6.92968485     5.60151727     5.52544363       region=surface
     18     Pt     4.15745557     0.80073204     5.52746732       region=surface
     19     Pt     5.54357021     3.20112466     5.52645547       region=surface
     20     Pt     6.92989639     4.00003668     3.26303536       region=surface
     21     Pt     8.31601103     6.40042930     3.26202352       region=surface
     22     Pt     5.54378174     1.59964406     3.26404721       region=surface
     23     Pt     9.70175484     3.99982280     3.26344593       region=surface
     24     Pt    11.08786948     6.40021541     3.26243408       region=surface
     25     Pt     8.31564020     1.59943018     3.26445778       region=surface
     26     Pt     4.15803792     4.00025057     3.26262480       region=surface
     27     Pt     5.54415256     6.40064318     3.26161295       region=surface
     28     Pt     2.77192328     1.59985795     3.26363664       region=surface
     29     Pt     1.38639089     2.39871548     1.00094199       region=surface
     30     Pt     5.54436409     4.79916260     0.99921469       region=surface
     31     Pt     6.93024583     7.19969029     1.00043291       region=surface
     32     Pt     4.15824945     2.39876998     1.00022653       region=surface
     33     Pt     8.31622256     4.79894871     0.99962525       region=surface
     34     Pt     9.70210429     7.19947641     1.00084348       region=surface
     35     Pt     6.93010792     2.39855609     1.00063710       region=surface
     36     Pt     2.77250564     4.79937648     0.99880412       region=surface
     37     Pt     4.15838737     7.19990418     1.00002234       region=surface

Lattice vectors (angstrom)
      1     8.31557575     0.00000000     0.00000000
      2     4.15778787     7.20149984     0.00000000

Unit cell area (angstrom^2)        59.88462

Total System Charge             0.00000


Geometry at FIRE step 14:

--------
Geometry
--------
Formula: OPt36
Atoms
  Index Symbol   x (angstrom)   y (angstrom)   z (angstrom)
      1      O     5.54197462     1.60332064     8.92687589       region=adsorbate
      2     Pt     8.31521714     4.80239136     7.78926430       region=surface
      3     Pt     5.54298786     0.00160612     7.79128800       region=surface
      4     Pt     6.92910250     2.40199874     7.79027615       region=surface
      5     Pt    11.08707571     4.80244586     7.78854885       region=surface
      6     Pt     8.31484643     0.00166062     7.79057254       region=surface
      7     Pt     9.70096096     2.40178486     7.79068672       region=surface
      8     Pt     5.54335868     4.80260524     7.78885374       region=surface
      9     Pt     2.77112940     0.00182001     7.79087743       region=surface
     10     Pt     4.15724404     2.40221263     7.78986559       region=surface
     11     Pt     9.70154331     5.60130339     5.52585419       region=surface
     12     Pt     6.92931403     0.80051815     5.52787789       region=surface
     13     Pt     8.31542867     3.20091077     5.52686604       region=surface
     14     Pt     4.15782639     5.60173116     5.52503306       region=surface
     15     Pt     1.38559711     0.80094593     5.52705675       region=surface
     16     Pt     2.77171175     3.20133854     5.52604491       region=surface
     17     Pt     6.92968485     5.60151727     5.52544363       region=surface
     18     Pt     4.15745557     0.80073204     5.52746732       region=surface
     19     Pt     5.54357021     3.20112466     5.52645547       region=surface
     20     Pt     6.92989639     4.00003668     3.26303536       region=surface
     21     Pt     8.31601103     6.40042930     3.26202352       region=surface
     22     Pt     5.54378174     1.59964406     3.26404721       region=surface
     23     Pt     9.70175484     3.99982280     3.26344593       region=surface
     24     Pt    11.08786948     6.40021541     3.26243408       region=surface
     25     Pt     8.31564020     1.59943018     3.26445778       region=surface
     26     Pt     4.15803792     4.00025057     3.26262480       region=surface
     27     Pt     5.54415256     6.40064318     3.26161295       region=surface
     28     Pt     2.77192328     1.59985795     3.26363664       region=surface
     29     Pt     1.38639089     2.39871548     1.00094199       region=surface
     30     Pt     5.54436409     4.79916260     0.99921469       region=surface
     31     Pt     6.93024583     7.19969029     1.00043291       region=surface
     32     Pt     4.15824945     2.39876998     1.00022653       region=surface
     33     Pt     8.31622256     4.79894871     0.99962525       region=surface
     34     Pt     9.70210429     7.19947641     1.00084348       region=surface
     35     Pt     6.93010792     2.39855609     1.00063710       region=surface
     36     Pt     2.77250564     4.79937648     0.99880412       region=surface
     37     Pt     4.15838737     7.19990418     1.00002234       region=surface

Lattice vectors (angstrom)
      1     8.31557575     0.00000000     0.00000000
      2     4.15778787     7.20149984     0.00000000

Unit cell area (angstrom^2)        59.88462

Total System Charge             0.00000


Geometry at FIRE step 15:

--------
Geometry
--------
Formula: OPt36
Atoms
  Index Symbol   x (angstrom)   y (angstrom)   z (angstrom)
      1      O     5.54234484     1.60302989     8.92687251       region=adsorbate
      2     Pt     8.31521714     4.80239136     7.78926430       region=surface
      3     Pt     5.54298786     0.00160612     7.79128800       region=surface
      4     Pt     6.92910250     2.40199874     7.79027615       region=surface
      5     Pt    11.08707571     4.80244586     7.78854885       region=surface
      6     Pt     8.31484643     0.00166062     7.79057254       region=surface
      7     Pt     9.70096096     2.40178486     7.79068672       region=surface
      8     Pt     5.54335868     4.80260524     7.78885374       region=surface
      9     Pt     2.77112940     0.00182001     7.79087743       region=surface
     10     Pt     4.15724404     2.40221263     7.78986559       region=surface
     11     Pt     9.70154331     5.60130339     5.52585419       region=surface
     12     Pt     6.92931403     0.80051815     5.52787789       region=surface
     13     Pt     8.31542867     3.20091077     5.52686604       region=surface
     14     Pt     4.15782639     5.60173116     5.52503306       region=surface
     15     Pt     1.38559711     0.80094593     5.52705675       region=surface
     16     Pt     2.77171175     3.20133854     5.52604491       region=surface
     17     Pt     6.92968485     5.60151727     5.52544363       region=surface
     18     Pt     4.15745557     0.80073204     5.52746732       region=surface
     19     Pt     5.54357021     3.20112466     5.52645547       region=surface
     20     Pt     6.92989639     4.00003668     3.26303536       region=surface
     21     Pt     8.31601103     6.40042930     3.26202352       region=surface
     22     Pt     5.54378174     1.59964406     3.26404721       region=surface
     23     Pt     9.70175484     3.99982280     3.26344593       region=surface
     24     Pt    11.08786948     6.40021541     3.26243408       region=surface
     25     Pt     8.31564020     1.59943018     3.26445778       region=surface
     26     Pt     4.15803792     4.00025057     3.26262480       region=surface
     27     Pt     5.54415256     6.40064318     3.26161295       region=surface
     28     Pt     2.77192328     1.59985795     3.26363664       region=surface
     29     Pt     1.38639089     2.39871548     1.00094199       region=surface
     30     Pt     5.54436409     4.79916260     0.99921469       region=surface
     31     Pt     6.93024583     7.19969029     1.00043291       region=surface
     32     Pt     4.15824945     2.39876998     1.00022653       region=surface
     33     Pt     8.31622256     4.79894871     0.99962525       region=surface
     34     Pt     9.70210429     7.19947641     1.00084348       region=surface
     35     Pt     6.93010792     2.39855609     1.00063710       region=surface
     36     Pt     2.77250564     4.79937648     0.99880412       region=surface
     37     Pt     4.15838737     7.19990418     1.00002234       region=surface

Lattice vectors (angstrom)
      1     8.31557575     0.00000000     0.00000000
      2     4.15778787     7.20149984     0.00000000

Unit cell area (angstrom^2)        59.88462

Total System Charge             0.00000


Geometry at FIRE step 16:

--------
Geometry
--------
Formula: OPt36
Atoms
  Index Symbol   x (angstrom)   y (angstrom)   z (angstrom)
      1      O     5.54271827     1.60273667     8.92690684       region=adsorbate
      2     Pt     8.31521714     4.80239136     7.78926430       region=surface
      3     Pt     5.54298786     0.00160612     7.79128800       region=surface
      4     Pt     6.92910250     2.40199874     7.79027615       region=surface
      5     Pt    11.08707571     4.80244586     7.78854885       region=surface
      6     Pt     8.31484643     0.00166062     7.79057254       region=surface
      7     Pt     9.70096096     2.40178486     7.79068672       region=surface
      8     Pt     5.54335868     4.80260524     7.78885374       region=surface
      9     Pt     2.77112940     0.00182001     7.79087743       region=surface
     10     Pt     4.15724404     2.40221263     7.78986559       region=surface
     11     Pt     9.70154331     5.60130339     5.52585419       region=surface
     12     Pt     6.92931403     0.80051815     5.52787789       region=surface
     13     Pt     8.31542867     3.20091077     5.52686604       region=surface
     14     Pt     4.15782639     5.60173116     5.52503306       region=surface
     15     Pt     1.38559711     0.80094593     5.52705675       region=surface
     16     Pt     2.77171175     3.20133854     5.52604491       region=surface
     17     Pt     6.92968485     5.60151727     5.52544363       region=surface
     18     Pt     4.15745557     0.80073204     5.52746732       region=surface
     19     Pt     5.54357021     3.20112466     5.52645547       region=surface
     20     Pt     6.92989639     4.00003668     3.26303536       region=surface
     21     Pt     8.31601103     6.40042930     3.26202352       region=surface
     22     Pt     5.54378174     1.59964406     3.26404721       region=surface
     23     Pt     9.70175484     3.99982280     3.26344593       region=surface
     24     Pt    11.08786948     6.40021541     3.26243408       region=surface
     25     Pt     8.31564020     1.59943018     3.26445778       region=surface
     26     Pt     4.15803792     4.00025057     3.26262480       region=surface
     27     Pt     5.54415256     6.40064318     3.26161295       region=surface
     28     Pt     2.77192328     1.59985795     3.26363664       region=surface
     29     Pt     1.38639089     2.39871548     1.00094199       region=surface
     30     Pt     5.54436409     4.79916260     0.99921469       region=surface
     31     Pt     6.93024583     7.19969029     1.00043291       region=surface
     32     Pt     4.15824945     2.39876998     1.00022653       region=surface
     33     Pt     8.31622256     4.79894871     0.99962525       region=surface
     34     Pt     9.70210429     7.19947641     1.00084348       region=surface
     35     Pt     6.93010792     2.39855609     1.00063710       region=surface
     36     Pt     2.77250564     4.79937648     0.99880412       region=surface
     37     Pt     4.15838737     7.19990418     1.00002234       region=surface

Lattice vectors (angstrom)
      1     8.31557575     0.00000000     0.00000000
      2     4.15778787     7.20149984     0.00000000

Unit cell area (angstrom^2)        59.88462

Total System Charge             0.00000


Geometry at FIRE step 17:

--------
Geometry
--------
Formula: OPt36
Atoms
  Index Symbol   x (angstrom)   y (angstrom)   z (angstrom)
      1      O     5.54307950     1.60245308     8.92698319       region=adsorbate
      2     Pt     8.31521714     4.80239136     7.78926430       region=surface
      3     Pt     5.54298786     0.00160612     7.79128800       region=surface
      4     Pt     6.92910250     2.40199874     7.79027615       region=surface
      5     Pt    11.08707571     4.80244586     7.78854885       region=surface
      6     Pt     8.31484643     0.00166062     7.79057254       region=surface
      7     Pt     9.70096096     2.40178486     7.79068672       region=surface
      8     Pt     5.54335868     4.80260524     7.78885374       region=surface
      9     Pt     2.77112940     0.00182001     7.79087743       region=surface
     10     Pt     4.15724404     2.40221263     7.78986559       region=surface
     11     Pt     9.70154331     5.60130339     5.52585419       region=surface
     12     Pt     6.92931403     0.80051815     5.52787789       region=surface
     13     Pt     8.31542867     3.20091077     5.52686604       region=surface
     14     Pt     4.15782639     5.60173116     5.52503306       region=surface
     15     Pt     1.38559711     0.80094593     5.52705675       region=surface
     16     Pt     2.77171175     3.20133854     5.52604491       region=surface
     17     Pt     6.92968485     5.60151727     5.52544363       region=surface
     18     Pt     4.15745557     0.80073204     5.52746732       region=surface
     19     Pt     5.54357021     3.20112466     5.52645547       region=surface
     20     Pt     6.92989639     4.00003668     3.26303536       region=surface
     21     Pt     8.31601103     6.40042930     3.26202352       region=surface
     22     Pt     5.54378174     1.59964406     3.26404721       region=surface
     23     Pt     9.70175484     3.99982280     3.26344593       region=surface
     24     Pt    11.08786948     6.40021541     3.26243408       region=surface
     25     Pt     8.31564020     1.59943018     3.26445778       region=surface
     26     Pt     4.15803792     4.00025057     3.26262480       region=surface
     27     Pt     5.54415256     6.40064318     3.26161295       region=surface
     28     Pt     2.77192328     1.59985795     3.26363664       region=surface
     29     Pt     1.38639089     2.39871548     1.00094199       region=surface
     30     Pt     5.54436409     4.79916260     0.99921469       region=surface
     31     Pt     6.93024583     7.19969029     1.00043291       region=surface
     32     Pt     4.15824945     2.39876998     1.00022653       region=surface
     33     Pt     8.31622256     4.79894871     0.99962525       region=surface
     34     Pt     9.70210429     7.19947641     1.00084348       region=surface
     35     Pt     6.93010792     2.39855609     1.00063710       region=surface
     36     Pt     2.77250564     4.79937648     0.99880412       region=surface
     37     Pt     4.15838737     7.19990418     1.00002234       region=surface

Lattice vectors (angstrom)
      1     8.31557575     0.00000000     0.00000000
      2     4.15778787     7.20149984     0.00000000

Unit cell area (angstrom^2)        59.88462

Total System Charge             0.00000


Geometry at FIRE step 18:

--------
Geometry
--------
Formula: OPt36
Atoms
  Index Symbol   x (angstrom)   y (angstrom)   z (angstrom)
      1      O     5.54307921     1.60245331     8.92698361       region=adsorbate
      2     Pt     8.31521714     4.80239136     7.78926430       region=surface
      3     Pt     5.54298786     0.00160612     7.79128800       region=surface
      4     Pt     6.92910250     2.40199874     7.79027615       region=surface
      5     Pt    11.08707571     4.80244586     7.78854885       region=surface
      6     Pt     8.31484643     0.00166062     7.79057254       region=surface
      7     Pt     9.70096096     2.40178486     7.79068672       region=surface
      8     Pt     5.54335868     4.80260524     7.78885374       region=surface
      9     Pt     2.77112940     0.00182001     7.79087743       region=surface
     10     Pt     4.15724404     2.40221263     7.78986559       region=surface
     11     Pt     9.70154331     5.60130339     5.52585419       region=surface
     12     Pt     6.92931403     0.80051815     5.52787789       region=surface
     13     Pt     8.31542867     3.20091077     5.52686604       region=surface
     14     Pt     4.15782639     5.60173116     5.52503306       region=surface
     15     Pt     1.38559711     0.80094593     5.52705675       region=surface
     16     Pt     2.77171175     3.20133854     5.52604491       region=surface
     17     Pt     6.92968485     5.60151727     5.52544363       region=surface
     18     Pt     4.15745557     0.80073204     5.52746732       region=surface
     19     Pt     5.54357021     3.20112466     5.52645547       region=surface
     20     Pt     6.92989639     4.00003668     3.26303536       region=surface
     21     Pt     8.31601103     6.40042930     3.26202352       region=surface
     22     Pt     5.54378174     1.59964406     3.26404721       region=surface
     23     Pt     9.70175484     3.99982280     3.26344593       region=surface
     24     Pt    11.08786948     6.40021541     3.26243408       region=surface
     25     Pt     8.31564020     1.59943018     3.26445778       region=surface
     26     Pt     4.15803792     4.00025057     3.26262480       region=surface
     27     Pt     5.54415256     6.40064318     3.26161295       region=surface
     28     Pt     2.77192328     1.59985795     3.26363664       region=surface
     29     Pt     1.38639089     2.39871548     1.00094199       region=surface
     30     Pt     5.54436409     4.79916260     0.99921469       region=surface
     31     Pt     6.93024583     7.19969029     1.00043291       region=surface
     32     Pt     4.15824945     2.39876998     1.00022653       region=surface
     33     Pt     8.31622256     4.79894871     0.99962525       region=surface
     34     Pt     9.70210429     7.19947641     1.00084348       region=surface
     35     Pt     6.93010792     2.39855609     1.00063710       region=surface
     36     Pt     2.77250564     4.79937648     0.99880412       region=surface
     37     Pt     4.15838737     7.19990418     1.00002234       region=surface

Lattice vectors (angstrom)
      1     8.31557575     0.00000000     0.00000000
      2     4.15778787     7.20149984     0.00000000

Unit cell area (angstrom^2)        59.88462

Total System Charge             0.00000


Geometry at FIRE step 19:

--------
Geometry
--------
Formula: OPt36
Atoms
  Index Symbol   x (angstrom)   y (angstrom)   z (angstrom)
      1      O     5.54307834     1.60245400     8.92698489       region=adsorbate
      2     Pt     8.31521714     4.80239136     7.78926430       region=surface
      3     Pt     5.54298786     0.00160612     7.79128800       region=surface
      4     Pt     6.92910250     2.40199874     7.79027615       region=surface
      5     Pt    11.08707571     4.80244586     7.78854885       region=surface
      6     Pt     8.31484643     0.00166062     7.79057254       region=surface
      7     Pt     9.70096096     2.40178486     7.79068672       region=surface
      8     Pt     5.54335868     4.80260524     7.78885374       region=surface
      9     Pt     2.77112940     0.00182001     7.79087743       region=surface
     10     Pt     4.15724404     2.40221263     7.78986559       region=surface
     11     Pt     9.70154331     5.60130339     5.52585419       region=surface
     12     Pt     6.92931403     0.80051815     5.52787789       region=surface
     13     Pt     8.31542867     3.20091077     5.52686604       region=surface
     14     Pt     4.15782639     5.60173116     5.52503306       region=surface
     15     Pt     1.38559711     0.80094593     5.52705675       region=surface
     16     Pt     2.77171175     3.20133854     5.52604491       region=surface
     17     Pt     6.92968485     5.60151727     5.52544363       region=surface
     18     Pt     4.15745557     0.80073204     5.52746732       region=surface
     19     Pt     5.54357021     3.20112466     5.52645547       region=surface
     20     Pt     6.92989639     4.00003668     3.26303536       region=surface
     21     Pt     8.31601103     6.40042930     3.26202352       region=surface
     22     Pt     5.54378174     1.59964406     3.26404721       region=surface
     23     Pt     9.70175484     3.99982280     3.26344593       region=surface
     24     Pt    11.08786948     6.40021541     3.26243408       region=surface
     25     Pt     8.31564020     1.59943018     3.26445778       region=surface
     26     Pt     4.15803792     4.00025057     3.26262480       region=surface
     27     Pt     5.54415256     6.40064318     3.26161295       region=surface
     28     Pt     2.77192328     1.59985795     3.26363664       region=surface
     29     Pt     1.38639089     2.39871548     1.00094199       region=surface
     30     Pt     5.54436409     4.79916260     0.99921469       region=surface
     31     Pt     6.93024583     7.19969029     1.00043291       region=surface
     32     Pt     4.15824945     2.39876998     1.00022653       region=surface
     33     Pt     8.31622256     4.79894871     0.99962525       region=surface
     34     Pt     9.70210429     7.19947641     1.00084348       region=surface
     35     Pt     6.93010792     2.39855609     1.00063710       region=surface
     36     Pt     2.77250564     4.79937648     0.99880412       region=surface
     37     Pt     4.15838737     7.19990418     1.00002234       region=surface

Lattice vectors (angstrom)
      1     8.31557575     0.00000000     0.00000000
      2     4.15778787     7.20149984     0.00000000

Unit cell area (angstrom^2)        59.88462

Total System Charge             0.00000


Geometry at FIRE step 20:

--------
Geometry
--------
Formula: OPt36
Atoms
  Index Symbol   x (angstrom)   y (angstrom)   z (angstrom)
      1      O     5.54307690     1.60245514     8.92698700       region=adsorbate
      2     Pt     8.31521714     4.80239136     7.78926430       region=surface
      3     Pt     5.54298786     0.00160612     7.79128800       region=surface
      4     Pt     6.92910250     2.40199874     7.79027615       region=surface
      5     Pt    11.08707571     4.80244586     7.78854885       region=surface
      6     Pt     8.31484643     0.00166062     7.79057254       region=surface
      7     Pt     9.70096096     2.40178486     7.79068672       region=surface
      8     Pt     5.54335868     4.80260524     7.78885374       region=surface
      9     Pt     2.77112940     0.00182001     7.79087743       region=surface
     10     Pt     4.15724404     2.40221263     7.78986559       region=surface
     11     Pt     9.70154331     5.60130339     5.52585419       region=surface
     12     Pt     6.92931403     0.80051815     5.52787789       region=surface
     13     Pt     8.31542867     3.20091077     5.52686604       region=surface
     14     Pt     4.15782639     5.60173116     5.52503306       region=surface
     15     Pt     1.38559711     0.80094593     5.52705675       region=surface
     16     Pt     2.77171175     3.20133854     5.52604491       region=surface
     17     Pt     6.92968485     5.60151727     5.52544363       region=surface
     18     Pt     4.15745557     0.80073204     5.52746732       region=surface
     19     Pt     5.54357021     3.20112466     5.52645547       region=surface
     20     Pt     6.92989639     4.00003668     3.26303536       region=surface
     21     Pt     8.31601103     6.40042930     3.26202352       region=surface
     22     Pt     5.54378174     1.59964406     3.26404721       region=surface
     23     Pt     9.70175484     3.99982280     3.26344593       region=surface
     24     Pt    11.08786948     6.40021541     3.26243408       region=surface
     25     Pt     8.31564020     1.59943018     3.26445778       region=surface
     26     Pt     4.15803792     4.00025057     3.26262480       region=surface
     27     Pt     5.54415256     6.40064318     3.26161295       region=surface
     28     Pt     2.77192328     1.59985795     3.26363664       region=surface
     29     Pt     1.38639089     2.39871548     1.00094199       region=surface
     30     Pt     5.54436409     4.79916260     0.99921469       region=surface
     31     Pt     6.93024583     7.19969029     1.00043291       region=surface
     32     Pt     4.15824945     2.39876998     1.00022653       region=surface
     33     Pt     8.31622256     4.79894871     0.99962525       region=surface
     34     Pt     9.70210429     7.19947641     1.00084348       region=surface
     35     Pt     6.93010792     2.39855609     1.00063710       region=surface
     36     Pt     2.77250564     4.79937648     0.99880412       region=surface
     37     Pt     4.15838737     7.19990418     1.00002234       region=surface

Lattice vectors (angstrom)
      1     8.31557575     0.00000000     0.00000000
      2     4.15778787     7.20149984     0.00000000

Unit cell area (angstrom^2)        59.88462

Total System Charge             0.00000


Geometry at FIRE step 21:

--------
Geometry
--------
Formula: OPt36
Atoms
  Index Symbol   x (angstrom)   y (angstrom)   z (angstrom)
      1      O     5.54307488     1.60245673     8.92698990       region=adsorbate
      2     Pt     8.31521714     4.80239136     7.78926430       region=surface
      3     Pt     5.54298786     0.00160612     7.79128800       region=surface
      4     Pt     6.92910250     2.40199874     7.79027615       region=surface
      5     Pt    11.08707571     4.80244586     7.78854885       region=surface
      6     Pt     8.31484643     0.00166062     7.79057254       region=surface
      7     Pt     9.70096096     2.40178486     7.79068672       region=surface
      8     Pt     5.54335868     4.80260524     7.78885374       region=surface
      9     Pt     2.77112940     0.00182001     7.79087743       region=surface
     10     Pt     4.15724404     2.40221263     7.78986559       region=surface
     11     Pt     9.70154331     5.60130339     5.52585419       region=surface
     12     Pt     6.92931403     0.80051815     5.52787789       region=surface
     13     Pt     8.31542867     3.20091077     5.52686604       region=surface
     14     Pt     4.15782639     5.60173116     5.52503306       region=surface
     15     Pt     1.38559711     0.80094593     5.52705675       region=surface
     16     Pt     2.77171175     3.20133854     5.52604491       region=surface
     17     Pt     6.92968485     5.60151727     5.52544363       region=surface
     18     Pt     4.15745557     0.80073204     5.52746732       region=surface
     19     Pt     5.54357021     3.20112466     5.52645547       region=surface
     20     Pt     6.92989639     4.00003668     3.26303536       region=surface
     21     Pt     8.31601103     6.40042930     3.26202352       region=surface
     22     Pt     5.54378174     1.59964406     3.26404721       region=surface
     23     Pt     9.70175484     3.99982280     3.26344593       region=surface
     24     Pt    11.08786948     6.40021541     3.26243408       region=surface
     25     Pt     8.31564020     1.59943018     3.26445778       region=surface
     26     Pt     4.15803792     4.00025057     3.26262480       region=surface
     27     Pt     5.54415256     6.40064318     3.26161295       region=surface
     28     Pt     2.77192328     1.59985795     3.26363664       region=surface
     29     Pt     1.38639089     2.39871548     1.00094199       region=surface
     30     Pt     5.54436409     4.79916260     0.99921469       region=surface
     31     Pt     6.93024583     7.19969029     1.00043291       region=surface
     32     Pt     4.15824945     2.39876998     1.00022653       region=surface
     33     Pt     8.31622256     4.79894871     0.99962525       region=surface
     34     Pt     9.70210429     7.19947641     1.00084348       region=surface
     35     Pt     6.93010792     2.39855609     1.00063710       region=surface
     36     Pt     2.77250564     4.79937648     0.99880412       region=surface
     37     Pt     4.15838737     7.19990418     1.00002234       region=surface

Lattice vectors (angstrom)
      1     8.31557575     0.00000000     0.00000000
      2     4.15778787     7.20149984     0.00000000

Unit cell area (angstrom^2)        59.88462

Total System Charge             0.00000


Geometry at FIRE step 22:

--------
Geometry
--------
Formula: OPt36
Atoms
  Index Symbol   x (angstrom)   y (angstrom)   z (angstrom)
      1      O     5.54307230     1.60245876     8.92699354       region=adsorbate
      2     Pt     8.31521714     4.80239136     7.78926430       region=surface
      3     Pt     5.54298786     0.00160612     7.79128800       region=surface
      4     Pt     6.92910250     2.40199874     7.79027615       region=surface
      5     Pt    11.08707571     4.80244586     7.78854885       region=surface
      6     Pt     8.31484643     0.00166062     7.79057254       region=surface
      7     Pt     9.70096096     2.40178486     7.79068672       region=surface
      8     Pt     5.54335868     4.80260524     7.78885374       region=surface
      9     Pt     2.77112940     0.00182001     7.79087743       region=surface
     10     Pt     4.15724404     2.40221263     7.78986559       region=surface
     11     Pt     9.70154331     5.60130339     5.52585419       region=surface
     12     Pt     6.92931403     0.80051815     5.52787789       region=surface
     13     Pt     8.31542867     3.20091077     5.52686604       region=surface
     14     Pt     4.15782639     5.60173116     5.52503306       region=surface
     15     Pt     1.38559711     0.80094593     5.52705675       region=surface
     16     Pt     2.77171175     3.20133854     5.52604491       region=surface
     17     Pt     6.92968485     5.60151727     5.52544363       region=surface
     18     Pt     4.15745557     0.80073204     5.52746732       region=surface
     19     Pt     5.54357021     3.20112466     5.52645547       region=surface
     20     Pt     6.92989639     4.00003668     3.26303536       region=surface
     21     Pt     8.31601103     6.40042930     3.26202352       region=surface
     22     Pt     5.54378174     1.59964406     3.26404721       region=surface
     23     Pt     9.70175484     3.99982280     3.26344593       region=surface
     24     Pt    11.08786948     6.40021541     3.26243408       region=surface
     25     Pt     8.31564020     1.59943018     3.26445778       region=surface
     26     Pt     4.15803792     4.00025057     3.26262480       region=surface
     27     Pt     5.54415256     6.40064318     3.26161295       region=surface
     28     Pt     2.77192328     1.59985795     3.26363664       region=surface
     29     Pt     1.38639089     2.39871548     1.00094199       region=surface
     30     Pt     5.54436409     4.79916260     0.99921469       region=surface
     31     Pt     6.93024583     7.19969029     1.00043291       region=surface
     32     Pt     4.15824945     2.39876998     1.00022653       region=surface
     33     Pt     8.31622256     4.79894871     0.99962525       region=surface
     34     Pt     9.70210429     7.19947641     1.00084348       region=surface
     35     Pt     6.93010792     2.39855609     1.00063710       region=surface
     36     Pt     2.77250564     4.79937648     0.99880412       region=surface
     37     Pt     4.15838737     7.19990418     1.00002234       region=surface

Lattice vectors (angstrom)
      1     8.31557575     0.00000000     0.00000000
      2     4.15778787     7.20149984     0.00000000

Unit cell area (angstrom^2)        59.88462

Total System Charge             0.00000


Geometry at FIRE step 23:

--------
Geometry
--------
Formula: OPt36
Atoms
  Index Symbol   x (angstrom)   y (angstrom)   z (angstrom)
      1      O     5.54306915     1.60246124     8.92699785       region=adsorbate
      2     Pt     8.31521714     4.80239136     7.78926430       region=surface
      3     Pt     5.54298786     0.00160612     7.79128800       region=surface
      4     Pt     6.92910250     2.40199874     7.79027615       region=surface
      5     Pt    11.08707571     4.80244586     7.78854885       region=surface
      6     Pt     8.31484643     0.00166062     7.79057254       region=surface
      7     Pt     9.70096096     2.40178486     7.79068672       region=surface
      8     Pt     5.54335868     4.80260524     7.78885374       region=surface
      9     Pt     2.77112940     0.00182001     7.79087743       region=surface
[...]
 Pt       8.31484543002080       0.00166061964855       7.79057254000001
 Pt       9.70095978678216       2.40178456239347       7.79068672000001
 Pt       5.54335800000968       4.80260464481683       7.78885373999999
 Pt       2.77112906678733       0.00182000964362       7.79087743000001
 Pt       4.15724353324851       2.40221233238022       7.78986559000000
 Pt       9.70154212764323       5.60130269597341       5.52585419000000
 Pt       6.92931319442089       0.80051805080020       5.52787788999997
 Pt       8.31542766118206       3.20091037323681       5.52686604000001
 Pt       4.15782587440958       5.60173046596016       5.52503306000000
 Pt       1.38559694118723       0.80094583078695       5.52705674999998
 Pt       2.77171140764840       3.20133814322355       5.52604491000001
 Pt       6.92968400117640       5.60151657596679       5.52544363000000
 Pt       4.15745506795406       0.80073194079358       5.52746732000000
 Pt       5.54356953441523       3.20112426323018       5.52645547000001
 Pt       6.92989554558195       4.00003618438015       3.26303535999998
 Pt       8.31601001204312       6.40042850681675       3.26202352000000
 Pt       5.54378106882078       1.59964386164354       3.26404721000000
 Pt       9.70175366204878       3.99982230438677       3.26344592999998
 Pt      11.08786812880995       6.40021461682338       3.26243407999997
 Pt       8.31563919558761       1.59942998195017       3.26445777999999
 Pt       4.15803740881512       4.00025007437352       3.26262480000001
 Pt       5.54415187557630       6.40064238681012       3.26161295000000
 Pt       2.77192294235395       1.59985775163691       3.26363664000000
 Pt       1.38639071675403       2.39871518278856       1.00094199000000
 Pt       5.54436340998185       4.79916200522348       0.99921468999999
 Pt       6.93024497644993       7.19968939795590       1.00043291000000
 Pt       4.15824894322067       2.39876968278687       1.00022653000000
 Pt       8.31622154644867       4.79894811523010       0.99962525000001
 Pt       9.70210310321676       7.19947551796252       1.00084348000000
 Pt       6.93010707998750       2.39855579279350       1.00063710000000
 Pt       2.77250529321502       4.79937588521685       0.99880411999999
 Pt       4.15838684998310       7.19990328764927       1.00002234000000
VEC1       8.31557575000000       0.00000000000000       0.00000000000000
VEC2       4.15778787000000       7.20149984000000       0.00000000000000
37
Id 40 Energy(hartree)     -7.25284954 TS
 O        5.54285258479938       2.61267299341566       9.08376235693599
 Pt       8.31521688667648       4.80239121122344       7.78926429999999
 Pt       5.54298769335415       0.00160611995024       7.79128800000001
 Pt       6.92910229001532       2.40199866558684       7.79027615000001
 Pt      11.08707537334312       4.80244571122175       7.78854885000000
 Pt       8.31484618002078       0.00166061994855       7.79057254000001
 Pt       9.70096066668214       2.40178478559346       7.79068672000001
 Pt       5.54335851000967       4.80260509121681       7.78885373999999
 Pt       2.77112931668733       0.00182000994362       7.79087743000001
 Pt       4.15724391334850       2.40221255558021       7.78986559000000
 Pt       9.70154301444320       5.60130321647340       5.52585419000000
 Pt       6.92931382112087       0.80051812520020       5.52787788999997
 Pt       8.31542841778204       3.20091067083680       5.52686604000001
 Pt       4.15782626110956       5.60173098646015       5.52503306000000
 Pt       1.38559706778723       0.80094590518695       5.52705674999998
 Pt       2.77171166444839       3.20133844082355       5.52604491000001
 Pt       6.92968463777638       5.60151709646677       5.52544363000000
 Pt       4.15745544445404       0.80073201519357       5.52746732000000
 Pt       5.54357004111522       3.20112456083017       5.52645547000001
 Pt       6.92989617888193       4.00003655608013       3.26303535999998
 Pt       8.31601077554310       6.40042910171673       3.26202352000000
 Pt       5.54378157222076       1.59964401044353       3.26404721000000
 Pt       9.70175454554876       3.99982267608676       3.26344592999998
 Pt      11.08786914220992       6.40021521172335       3.26243407999997
 Pt       8.31563994888758       1.59943013045016       3.26445777999999
 Pt       4.15803779221511       4.00025044607351       3.26262480000001
 Pt       5.54415238887628       6.40064298171011       3.26161295000000
 Pt       2.77192319555394       1.59985790043691       3.26363664000000
 Pt       1.38639084665403       2.39871540568855       1.00094199000000
 Pt       5.54436391998183       4.79916245132347       0.99921468999999
 Pt       6.93024561664991       7.19969006695588       1.00043291000000
 Pt       4.15824932332066       2.39876990568687       1.00022653000000
 Pt       8.31622230664865       4.79894856133009       0.99962525000001
 Pt       9.70210399331672       7.19947618696250       1.00084348000000
 Pt       6.93010770998748       2.39855601569349       1.00063710000000
 Pt       2.77250555331501       4.79937633131684       0.99880411999999
 Pt       4.15838723998309       7.19990395694925       1.00002234000000
VEC1       8.31557575000000       0.00000000000000       0.00000000000000
VEC2       4.15778787000000       7.20149984000000       0.00000000000000
37
Id 41 Energy(hartree)     -7.25283532 TS
 O        2.77183836825339       2.61265205475962       9.08399659633876
 Pt       8.31521612677651       4.80239076482345       7.78926429999999
 Pt       5.54298719355416       0.00160611995024       7.79128800000001
 Pt       6.92910166001534       2.40199844238685       7.79027615000001
 Pt      11.08707436324315       4.80244526482176       7.78854885000000
 Pt       8.31484543002080       0.00166061964855       7.79057254000001
 Pt       9.70095978678216       2.40178456239347       7.79068672000001
 Pt       5.54335800000968       4.80260464481683       7.78885373999999
 Pt       2.77112906678733       0.00182000964362       7.79087743000001
 Pt       4.15724353324851       2.40221233238022       7.78986559000000
 Pt       9.70154212764323       5.60130269597341       5.52585419000000
 Pt       6.92931319442089       0.80051805080020       5.52787788999997
 Pt       8.31542766118206       3.20091037323681       5.52686604000001
 Pt       4.15782587440958       5.60173046596016       5.52503306000000
 Pt       1.38559694118723       0.80094583078695       5.52705674999998
 Pt       2.77171140764840       3.20133814322355       5.52604491000001
 Pt       6.92968400117640       5.60151657596679       5.52544363000000
 Pt       4.15745506795406       0.80073194079358       5.52746732000000
 Pt       5.54356953441523       3.20112426323018       5.52645547000001
 Pt       6.92989554558195       4.00003618438015       3.26303535999998
 Pt       8.31601001204312       6.40042850681675       3.26202352000000
 Pt       5.54378106882078       1.59964386164354       3.26404721000000
 Pt       9.70175366204878       3.99982230438677       3.26344592999998
 Pt      11.08786812880995       6.40021461682338       3.26243407999997
 Pt       8.31563919558761       1.59942998195017       3.26445777999999
 Pt       4.15803740881512       4.00025007437352       3.26262480000001
 Pt       5.54415187557630       6.40064238681012       3.26161295000000
 Pt       2.77192294235395       1.59985775163691       3.26363664000000
 Pt       1.38639071675403       2.39871518278856       1.00094199000000
 Pt       5.54436340998185       4.79916200522348       0.99921468999999
 Pt       6.93024497644993       7.19968939795590       1.00043291000000
 Pt       4.15824894322067       2.39876968278687       1.00022653000000
 Pt       8.31622154644867       4.79894811523010       0.99962525000001
 Pt       9.70210310321676       7.19947551796252       1.00084348000000
 Pt       6.93010707998750       2.39855579279350       1.00063710000000
 Pt       2.77250529321502       4.79937588521685       0.99880411999999
 Pt       4.15838684998310       7.19990328764927       1.00002234000000
VEC1       8.31557575000000       0.00000000000000       0.00000000000000
VEC2       4.15778787000000       7.20149984000000       0.00000000000000
37
Id 42 Energy(hartree)     -7.25283276 TS
 O       10.21279830023336       5.89630950258107       9.08370485421124
 Pt       8.31521638007650       4.80239091362345       7.78926429999999
 Pt       5.54298736015416       0.00160611995024       7.79128800000001
 Pt       6.92910187001533       2.40199851678685       7.79027615000001
 Pt      11.08707469994314       4.80244541362176       7.78854885000000
 Pt       8.31484568002080       0.00166061974855       7.79057254000001
 Pt       9.70096008008216       2.40178463679347       7.79068672000001
 Pt       5.54335817000967       4.80260479361682       7.78885373999999
 Pt       2.77112915008733       0.00182000974362       7.79087743000001
 Pt       4.15724365994850       2.40221240678022       7.78986559000000
 Pt       9.70154242324323       5.60130286947341       5.52585419000000
 Pt       6.92931340332088       0.80051807560020       5.52787788999997
 Pt       8.31542791338205       3.20091047243681       5.52686604000001
 Pt       4.15782600330957       5.60173063946016       5.52503306000000
 Pt       1.38559698338723       0.80094585558695       5.52705674999998
 Pt       2.77171149324840       3.20133824242355       5.52604491000001
 Pt       6.92968421337640       5.60151674946678       5.52544363000000
 Pt       4.15745519345405       0.80073196559358       5.52746732000000
 Pt       5.54356970331523       3.20112436243018       5.52645547000001
 Pt       6.92989575668193       4.00003630828014       3.26303535999998
 Pt       8.31601026654312       6.40042870511674       3.26202352000000
 Pt       5.54378123662077       1.59964391124354       3.26404721000000
 Pt       9.70175395654877       3.99982242828677       3.26344592999998
 Pt      11.08786846660994       6.40021481512337       3.26243407999997
 Pt       8.31563944668760       1.59943003145016       3.26445777999999
 Pt       4.15803753661512       4.00025019827351       3.26262480000001
 Pt       5.54415204667629       6.40064258511011       3.26161295000000
 Pt       2.77192302675395       1.59985780123691       3.26363664000000
 Pt       1.38639076005403       2.39871525708856       1.00094199000000
 Pt       5.54436357998184       4.79916215392347       0.99921468999999
 Pt       6.93024518984992       7.19968962095589       1.00043291000000
 Pt       4.15824906992067       2.39876975708687       1.00022653000000
 Pt       8.31622179984867       4.79894826393010       0.99962525000001
 Pt       9.70210339991675       7.19947574096252       1.00084348000000
 Pt       6.93010728998749       2.39855586709350       1.00063710000000
 Pt       2.77250537991501       4.79937603391685       0.99880411999999
 Pt       4.15838697998309       7.19990351074927       1.00002234000000
VEC1       8.31557575000000       0.00000000000000       0.00000000000000
VEC2       4.15778787000000       7.20149984000000       0.00000000000000
37
Id 43 Energy(hartree)     -7.25283253 TS
 O        7.44014981263509       5.89679391006794       9.08376155417849
 Pt       8.31521638007650       4.80239091362345       7.78926429999999
 Pt       5.54298736015416       0.00160611995024       7.79128800000001
 Pt       6.92910187001533       2.40199851678685       7.79027615000001
 Pt      11.08707469994314       4.80244541362176       7.78854885000000
 Pt       8.31484568002080       0.00166061974855       7.79057254000001
 Pt       9.70096008008216       2.40178463679347       7.79068672000001
 Pt       5.54335817000967       4.80260479361682       7.78885373999999
 Pt       2.77112915008733       0.00182000974362       7.79087743000001
 Pt       4.15724365994850       2.40221240678022       7.78986559000000
 Pt       9.70154242324323       5.60130286947341       5.52585419000000
 Pt       6.92931340332088       0.80051807560020       5.52787788999997
 Pt       8.31542791338205       3.20091047243681       5.52686604000001
 Pt       4.15782600330957       5.60173063946016       5.52503306000000
 Pt       1.38559698338723       0.80094585558695       5.52705674999998
 Pt       2.77171149324840       3.20133824242355       5.52604491000001
 Pt       6.92968421337640       5.60151674946678       5.52544363000000
 Pt       4.15745519345405       0.80073196559358       5.52746732000000
 Pt       5.54356970331523       3.20112436243018       5.52645547000001
 Pt       6.92989575668193       4.00003630828014       3.26303535999998
 Pt       8.31601026654312       6.40042870511674       3.26202352000000
 Pt       5.54378123662077       1.59964391124354       3.26404721000000
 Pt       9.70175395654877       3.99982242828677       3.26344592999998
 Pt      11.08786846660994       6.40021481512337       3.26243407999997
 Pt       8.31563944668760       1.59943003145016       3.26445777999999
 Pt       4.15803753661512       4.00025019827351       3.26262480000001
 Pt       5.54415204667629       6.40064258511011       3.26161295000000
 Pt       2.77192302675395       1.59985780123691       3.26363664000000
 Pt       1.38639076005403       2.39871525708856       1.00094199000000
 Pt       5.54436357998184       4.79916215392347       0.99921468999999
 Pt       6.93024518984992       7.19968962095589       1.00043291000000
 Pt       4.15824906992067       2.39876975708687       1.00022653000000
 Pt       8.31622179984867       4.79894826393010       0.99962525000001
 Pt       9.70210339991675       7.19947574096252       1.00084348000000
 Pt       6.93010728998749       2.39855586709350       1.00063710000000
 Pt       2.77250537991501       4.79937603391685       0.99880411999999
 Pt       4.15838697998309       7.19990351074927       1.00002234000000
VEC1       8.31557575000000       0.00000000000000       0.00000000000000
VEC2       4.15778787000000       7.20149984000000       0.00000000000000
37
Id 44 Energy(hartree)     -7.25283184 TS
 O        4.15746854761578       5.01089870331528       9.08274224557683
 Pt       8.31521638007650       4.80239091362345       7.78926429999999
 Pt       5.54298736015416       0.00160611995024       7.79128800000001
 Pt       6.92910187001533       2.40199851678685       7.79027615000001
 Pt      11.08707469994314       4.80244541362176       7.78854885000000
 Pt       8.31484568002080       0.00166061974855       7.79057254000001
 Pt       9.70096008008216       2.40178463679347       7.79068672000001
 Pt       5.54335817000967       4.80260479361682       7.78885373999999
 Pt       2.77112915008733       0.00182000974362       7.79087743000001
 Pt       4.15724365994850       2.40221240678022       7.78986559000000
 Pt       9.70154242324323       5.60130286947341       5.52585419000000
 Pt       6.92931340332088       0.80051807560020       5.52787788999997
 Pt       8.31542791338205       3.20091047243681       5.52686604000001
 Pt       4.15782600330957       5.60173063946016       5.52503306000000
 Pt       1.38559698338723       0.80094585558695       5.52705674999998
 Pt       2.77171149324840       3.20133824242355       5.52604491000001
 Pt       6.92968421337640       5.60151674946678       5.52544363000000
 Pt       4.15745519345405       0.80073196559358       5.52746732000000
 Pt       5.54356970331523       3.20112436243018       5.52645547000001
 Pt       6.92989575668193       4.00003630828014       3.26303535999998
 Pt       8.31601026654312       6.40042870511674       3.26202352000000
 Pt       5.54378123662077       1.59964391124354       3.26404721000000
 Pt       9.70175395654877       3.99982242828677       3.26344592999998
 Pt      11.08786846660994       6.40021481512337       3.26243407999997
 Pt       8.31563944668760       1.59943003145016       3.26445777999999
 Pt       4.15803753661512       4.00025019827351       3.26262480000001
 Pt       5.54415204667629       6.40064258511011       3.26161295000000
 Pt       2.77192302675395       1.59985780123691       3.26363664000000
 Pt       1.38639076005403       2.39871525708856       1.00094199000000
 Pt       5.54436357998184       4.79916215392347       0.99921468999999
 Pt       6.93024518984992       7.19968962095589       1.00043291000000
 Pt       4.15824906992067       2.39876975708687       1.00022653000000
 Pt       8.31622179984867       4.79894826393010       0.99962525000001
 Pt       9.70210339991675       7.19947574096252       1.00084348000000
 Pt       6.93010728998749       2.39855586709350       1.00063710000000
 Pt       2.77250537991501       4.79937603391685       0.99880411999999
 Pt       4.15838697998309       7.19990351074927       1.00002234000000
VEC1       8.31557575000000       0.00000000000000       0.00000000000000
VEC2       4.15778787000000       7.20149984000000       0.00000000000000
37
Id 45 Energy(hartree)     -7.25282175 TS
 O        4.66854238647827       5.89666853711987       9.08342979147576
 Pt       8.31521612677651       4.80239076482345       7.78926429999999
 Pt       5.54298719355416       0.00160611995024       7.79128800000001
 Pt       6.92910166001534       2.40199844238685       7.79027615000001
 Pt      11.08707436324315       4.80244526482176       7.78854885000000
 Pt       8.31484543002080       0.00166061964855       7.79057254000001
 Pt       9.70095978678216       2.40178456239347       7.79068672000001
 Pt       5.54335800000968       4.80260464481683       7.78885373999999
 Pt       2.77112906678733       0.00182000964362       7.79087743000001
 Pt       4.15724353324851       2.40221233238022       7.78986559000000
 Pt       9.70154212764323       5.60130269597341       5.52585419000000
 Pt       6.92931319442089       0.80051805080020       5.52787788999997
 Pt       8.31542766118206       3.20091037323681       5.52686604000001
 Pt       4.15782587440958       5.60173046596016       5.52503306000000
 Pt       1.38559694118723       0.80094583078695       5.52705674999998
 Pt       2.77171140764840       3.20133814322355       5.52604491000001
 Pt       6.92968400117640       5.60151657596679       5.52544363000000
 Pt       4.15745506795406       0.80073194079358       5.52746732000000
 Pt       5.54356953441523       3.20112426323018       5.52645547000001
 Pt       6.92989554558195       4.00003618438015       3.26303535999998
 Pt       8.31601001204312       6.40042850681675       3.26202352000000
 Pt       5.54378106882078       1.59964386164354       3.26404721000000
 Pt       9.70175366204878       3.99982230438677       3.26344592999998
 Pt      11.08786812880995       6.40021461682338       3.26243407999997
 Pt       8.31563919558761       1.59942998195017       3.26445777999999
 Pt       4.15803740881512       4.00025007437352       3.26262480000001
 Pt       5.54415187557630       6.40064238681012       3.26161295000000
 Pt       2.77192294235395       1.59985775163691       3.26363664000000
 Pt       1.38639071675403       2.39871518278856       1.00094199000000
 Pt       5.54436340998185       4.79916200522348       0.99921468999999
 Pt       6.93024497644993       7.19968939795590       1.00043291000000
 Pt       4.15824894322067       2.39876968278687       1.00022653000000
 Pt       8.31622154644867       4.79894811523010       0.99962525000001
 Pt       9.70210310321676       7.19947551796252       1.00084348000000
 Pt       6.93010707998750       2.39855579279350       1.00063710000000
 Pt       2.77250529321502       4.79937588521685       0.99880411999999
 Pt       4.15838684998310       7.19990328764927       1.00002234000000
VEC1       8.31557575000000       0.00000000000000       0.00000000000000
VEC2       4.15778787000000       7.20149984000000       0.00000000000000

AMS application finished. Exiting.
NORMAL TERMINATION
     Total cpu time:      71.59
  Total system time:       6.83
 Total elapsed time:      79.67
