

 Parallel Execution: Process Information
 ==============================================================================
 Rank   Node Name                              NodeID   MyNodeRank  NodeMaster
    0   aguirre-XPS-13-7390                       0          0          0
    1   aguirre-XPS-13-7390                       0          1         -1
    2   aguirre-XPS-13-7390                       0          2         -1
    3   aguirre-XPS-13-7390                       0          3         -1
 ==============================================================================


May use up to 7486MB of RAM as shared memory on node 0
Floating license: not using directory 
Floating license: not using directory 
Floating license: not using directory 
Floating license: not using directory 

 *******************************************************************************
 *                                                                             *
 *  --------------------------------                                           *
 *   Amsterdam Modeling Suite (AMS)              2022.204                      *
 *  --------------------------------                                           *
 *                                               r105628 2022-07-14            *
 *                                                                             *
 *                                                                             *
 *                              =================                              *
 *                              |               |                              *
 *                              |     A M S     |                              *
 *                              |               |                              *
 *                              =================                              *
 *                                                                             *
 *                                                                             *
 *   Online information and documentation:  https://www.scm.com/support/       *
 *   E-mail:  support@scm.com   info@scm.com                                   *
 *                                                                             *
 *   Scientific publications using AMS results must be properly referenced     *
 *   See the User Manuals (or the web site) for recommended citations          *
 *   The terms and conditions of the End User License Agreement apply to       *
 *   the use of AMS, https://www.scm.com/license-terms/                        *
 *                                                                             *
 **********************  x86_64_linux_intel / intelmpi  ************************
 
 Licensed to: Dr. Nestor Aguirre Castiblanco  / SCM / Amsterdam / NETHERLANDS 2022-01-24 09:33:25
 SCM User ID: u22021
  
 AMS 2022.204  RunTime: Jul15-2022 09:26:21  ShM Nodes: 1  Procs: 4

 AMS jobname: CO-Pt111
 AMS jobid  : 1230707796

 Start   directory: /home/aguirre/Develop/pyzacros/test_RKFLoader/CO-Pt111/
 Results directory: /home/aguirre/Develop/pyzacros/test_RKFLoader/CO-Pt111/
 Scratch directory: /scratch/aguirre/amstmp_CO-Pt111_kid0.1230707796/


 Communication costs MPI_COMM_WORLD:      0.795 usec per message,   0.0134 usec per 8-byte item
 Communication costs for intra-node:      0.663 usec per message,   0.0122 usec per 8-byte item

 RNG seed: 1303155250 -801474671 1766648362 -382820239 -745201405 1535909275 -1309979628 1976086192
 MPI rank    0: Number of processors available to this process:      2
 MPI rank    0: Default max number of OpenMP threads:                2
 MPI rank    0: The OMP_NUM_THREADS environment variable is not set!
 MPI rank    0: Restrict max number of OpenMP threads to:            1
Force field identifier: Reactive MD-force field: C/H/O/N/S/F/Pt/
 Triple bond stabilization enabled for C-O only
 Non-bonding interaction type[nonbontype]:
 No inner wall, shielding
 Warning:changed vval3 to valf for X 

Reference geometry:
   Note: All states are going to be aligned with this reference
 
--------
Geometry
--------
Formula: Pt36
Atoms
  Index Symbol   x (angstrom)   y (angstrom)   z (angstrom)
      1     Pt     9.24070201     6.95527267     1.31036083       region=surface
      2     Pt     9.24070201     2.15427277     1.31036083       region=surface
      3     Pt    10.62663130     4.55477272     1.31036083       region=surface
      4     Pt    12.01256059     6.95527267     1.31036083       region=surface
      5     Pt     3.69698485     2.15427277     8.10000000       region=surface
      6     Pt     5.08291414     4.55477272     8.10000000       region=surface
      7     Pt     6.46884343     6.95527267     8.10000000       region=surface
      8     Pt     6.46884343     2.15427277     8.10000000       region=surface
      9     Pt     7.85477272     4.55477272     8.10000000       region=surface
     10     Pt     9.24070201     6.95527267     8.10000000       region=surface
     11     Pt     9.24070201     2.15427277     8.10000000       region=surface
     12     Pt    10.62663130     4.55477272     8.10000000       region=surface
     13     Pt    12.01256059     6.95527267     8.10000000       region=surface
     14     Pt     5.08291414     2.95443942     5.83678694       region=surface
     15     Pt     6.46884343     5.35493937     5.83678694       region=surface
     16     Pt     7.85477272     7.75543932     5.83678694       region=surface
     17     Pt     7.85477272     2.95443942     5.83678694       region=surface
     18     Pt     9.24070201     5.35493937     5.83678694       region=surface
     19     Pt    10.62663130     7.75543932     5.83678694       region=surface
     20     Pt    10.62663130     2.95443942     5.83678694       region=surface
     21     Pt    12.01256059     5.35493937     5.83678694       region=surface
     22     Pt    13.39848987     7.75543932     5.83678694       region=surface
     23     Pt     2.31105556     1.35410612     3.57357389       region=surface
     24     Pt     3.69698485     3.75460607     3.57357389       region=surface
     25     Pt     5.08291414     6.15510602     3.57357389       region=surface
     26     Pt     5.08291414     1.35410612     3.57357389       region=surface
     27     Pt     6.46884343     3.75460607     3.57357389       region=surface
     28     Pt     7.85477272     6.15510602     3.57357389       region=surface
     29     Pt     7.85477272     1.35410612     3.57357389       region=surface
     30     Pt     9.24070201     3.75460607     3.57357389       region=surface
     31     Pt    10.62663130     6.15510602     3.57357389       region=surface
     32     Pt     3.69698485     2.15427277     1.31036083       region=surface
     33     Pt     5.08291414     4.55477272     1.31036083       region=surface
     34     Pt     6.46884343     6.95527267     1.31036083       region=surface
     35     Pt     6.46884343     2.15427277     1.31036083       region=surface
     36     Pt     7.85477272     4.55477272     1.31036083       region=surface
 
Lattice vectors (angstrom)
      1     8.31557575     0.00000000     0.00000000
      2     4.15778787     7.20149984     0.00000000
 
Unit cell area (angstrom^2)        59.88462
 
Total System Charge             0.00000
 

Aligning All Database With the Reference Adsorbent
--------------------------------------------------
   Alignment successful


Reference geometry:
   Note: All states are going to be aligned with this reference
 
--------
Geometry
--------
Formula: Pt36
Atoms
  Index Symbol   x (angstrom)   y (angstrom)   z (angstrom)
      1     Pt     9.24070201     6.95527267     1.31036083       region=surface
      2     Pt     9.24070201     2.15427277     1.31036083       region=surface
      3     Pt    10.62663130     4.55477272     1.31036083       region=surface
      4     Pt    12.01256059     6.95527267     1.31036083       region=surface
      5     Pt     3.69698485     2.15427277     8.10000000       region=surface
      6     Pt     5.08291414     4.55477272     8.10000000       region=surface
      7     Pt     6.46884343     6.95527267     8.10000000       region=surface
      8     Pt     6.46884343     2.15427277     8.10000000       region=surface
      9     Pt     7.85477272     4.55477272     8.10000000       region=surface
     10     Pt     9.24070201     6.95527267     8.10000000       region=surface
     11     Pt     9.24070201     2.15427277     8.10000000       region=surface
     12     Pt    10.62663130     4.55477272     8.10000000       region=surface
     13     Pt    12.01256059     6.95527267     8.10000000       region=surface
     14     Pt     5.08291414     2.95443942     5.83678694       region=surface
     15     Pt     6.46884343     5.35493937     5.83678694       region=surface
     16     Pt     7.85477272     7.75543932     5.83678694       region=surface
     17     Pt     7.85477272     2.95443942     5.83678694       region=surface
     18     Pt     9.24070201     5.35493937     5.83678694       region=surface
     19     Pt    10.62663130     7.75543932     5.83678694       region=surface
     20     Pt    10.62663130     2.95443942     5.83678694       region=surface
     21     Pt    12.01256059     5.35493937     5.83678694       region=surface
     22     Pt    13.39848987     7.75543932     5.83678694       region=surface
     23     Pt     2.31105556     1.35410612     3.57357389       region=surface
     24     Pt     3.69698485     3.75460607     3.57357389       region=surface
     25     Pt     5.08291414     6.15510602     3.57357389       region=surface
     26     Pt     5.08291414     1.35410612     3.57357389       region=surface
     27     Pt     6.46884343     3.75460607     3.57357389       region=surface
     28     Pt     7.85477272     6.15510602     3.57357389       region=surface
     29     Pt     7.85477272     1.35410612     3.57357389       region=surface
     30     Pt     9.24070201     3.75460607     3.57357389       region=surface
     31     Pt    10.62663130     6.15510602     3.57357389       region=surface
     32     Pt     3.69698485     2.15427277     1.31036083       region=surface
     33     Pt     5.08291414     4.55477272     1.31036083       region=surface
     34     Pt     6.46884343     6.95527267     1.31036083       region=surface
     35     Pt     6.46884343     2.15427277     1.31036083       region=surface
     36     Pt     7.85477272     4.55477272     1.31036083       region=surface
 
Lattice vectors (angstrom)
      1     8.31557575     0.00000000     0.00000000
      2     4.15778787     7.20149984     0.00000000
 
Unit cell area (angstrom^2)        59.88462
 
Total System Charge             0.00000
 

---------------------------
PES Exploration Parameters*
---------------------------

*) All parameters are ignored except:
   
Temperature                                  300.00000
GenerateSymmetryImages                               F
   
   Prefactor
   ---------
   Rate                                           htst
   
      Optimizer
      ---------
      ConvergedForce                           0.00500
   
   StructureComparison
   -------------------
   DistanceDifference                          0.20000
   NeighborCutoff                              2.40000
   CheckRotation                                     F
   IndistinguishableAtoms                            T
   CheckSymmetry                                     F
   EnergyDifference                            0.05000
   RemoveTranslation                                 F
   
   
   StatesAlignment
   ---------------
   ReferenceRegion                             surface
   RemoveUnaligned                                   F
   DistanceDifference                          0.20000

   BindingSites
   ------------
   Calculate                                         T
   DistanceDifference                          0.50000
   NeighborCutoff                              3.80000

       **************************************
       * Loading Energy Landscape to refine *
       **************************************

Restoring energy landscape from: /home/aguirre/Develop/pyzacros/test_RKFLoader/CO-Pt111/../CO_ads-Pt111/ams.rkf

-------------------------
Checking Duplicate States
-------------------------

      Id         Energy      DB
   ----------------------------
   Local minima
       1      -7.651642     New
       2      -7.651572     New
       3      -7.623823     New
   Transition states
       4      -7.622548   NewTS 2 <--> 3
       5      -7.622431   NewTS 1 <--> 3

> Sorting Energy Landscape by Energy ... DONE


Restoring fragments energy landscape from: /home/aguirre/Develop/pyzacros/test_RKFLoader/CO-Pt111/../CO_ads-Pt111/ams.rkf

--------------------------
Generating Symmetry Images
--------------------------

ReferenceRegion                                surface
NSymmetryOperators                                 108

     ParentId  Operator        Id         Energy      DB
   --------------------------------------------------------
            1         1         1      -7.651642     Old=>1
            1         2         2      -7.651642     New=>6
            1         3         3      -7.651642     New=>7
            1         4         4      -7.651642     New=>8
            1         5         5      -7.651642     New=>9
            1         6         6      -7.651642     New=>10
            1         7         7      -7.651642     New=>11
            1         8         8      -7.651642     New=>12
            1         9         9      -7.651642     New=>13
            1        10        10      -7.651642     Old=>11
            1        11        11      -7.651642     Old=>12
            1        12        12      -7.651642     Old=>13
            1        13        13      -7.651642     Old=>1
            1        14        14      -7.651642     Old=>6
            1        15        15      -7.651642     Old=>7
            1        16        16      -7.651642     Old=>8
            1        17        17      -7.651642     Old=>9
            1        18        18      -7.651642     Old=>10
            1        19        19      -7.651642     Old=>9
            1        20        20      -7.651642     Old=>13
            1        21        21      -7.651642     Old=>1
            1        22        22      -7.651642     Old=>12
            1        23        23      -7.651642     Old=>7
            1        24        24      -7.651642     Old=>8
            1        25        25      -7.651642     Old=>6
            1        26        26      -7.651642     Old=>10
            1        27        27      -7.651642     Old=>11
            1        28        28      -7.651642     Old=>11
            1        29        29      -7.651642     Old=>12
            1        30        30      -7.651642     Old=>13
            1        31        31      -7.651642     Old=>1
            1        32        32      -7.651642     Old=>6
            1        33        33      -7.651642     Old=>7
            1        34        34      -7.651642     Old=>8
            1        35        35      -7.651642     Old=>9
            1        36        36      -7.651642     Old=>10
            1        37        37      -7.651642     Old=>1
            1        38        38      -7.651642     Old=>6
            1        39        39      -7.651642     Old=>7
            1        40        40      -7.651642     Old=>8
            1        41        41      -7.651642     Old=>9
            1        42        42      -7.651642     Old=>10
            1        43        43      -7.651642     Old=>11
            1        44        44      -7.651642     Old=>12
            1        45        45      -7.651642     Old=>13
            1        46        46      -7.651642     Old=>9
            1        47        47      -7.651642     Old=>13
            1        48        48      -7.651642     Old=>1
            1        49        49      -7.651642     Old=>12
            1        50        50      -7.651642     Old=>7
            1        51        51      -7.651642     Old=>8
            1        52        52      -7.651642     Old=>6
            1        53        53      -7.651642     Old=>10
            1        54        54      -7.651642     Old=>11
            1        55        55                IGNORED (+z -> -z)
            1        55        56                IGNORED (+z -> -z)
            1        55        57                IGNORED (+z -> -z)
            1        55        58                IGNORED (+z -> -z)
            1        55        59                IGNORED (+z -> -z)
            1        55        60                IGNORED (+z -> -z)
            1        55        61                IGNORED (+z -> -z)
            1        55        62                IGNORED (+z -> -z)
            1        55        63                IGNORED (+z -> -z)
            1        55        64                IGNORED (+z -> -z)
            1        55        65                IGNORED (+z -> -z)
            1        55        66                IGNORED (+z -> -z)
            1        55        67                IGNORED (+z -> -z)
            1        55        68                IGNORED (+z -> -z)
            1        55        69                IGNORED (+z -> -z)
            1        55        70                IGNORED (+z -> -z)
            1        55        71                IGNORED (+z -> -z)
            1        55        72                IGNORED (+z -> -z)
            1        55        73                IGNORED (+z -> -z)
            1        55        74                IGNORED (+z -> -z)
            1        55        75                IGNORED (+z -> -z)
            1        55        76                IGNORED (+z -> -z)
            1        55        77                IGNORED (+z -> -z)
            1        55        78                IGNORED (+z -> -z)
            1        55        79                IGNORED (+z -> -z)
            1        55        80                IGNORED (+z -> -z)
            1        55        81                IGNORED (+z -> -z)
            1        55        82                IGNORED (+z -> -z)
            1        55        83                IGNORED (+z -> -z)
            1        55        84                IGNORED (+z -> -z)
            1        55        85                IGNORED (+z -> -z)
            1        55        86                IGNORED (+z -> -z)
            1        55        87                IGNORED (+z -> -z)
            1        55        88                IGNORED (+z -> -z)
            1        55        89                IGNORED (+z -> -z)
            1        55        90                IGNORED (+z -> -z)
            1        55        91                IGNORED (+z -> -z)
            1        55        92                IGNORED (+z -> -z)
            1        55        93                IGNORED (+z -> -z)
            1        55        94                IGNORED (+z -> -z)
            1        55        95                IGNORED (+z -> -z)
            1        55        96                IGNORED (+z -> -z)
            1        55        97                IGNORED (+z -> -z)
            1        55        98                IGNORED (+z -> -z)
            1        55        99                IGNORED (+z -> -z)
            1        55       100                IGNORED (+z -> -z)
            1        55       101                IGNORED (+z -> -z)
            1        55       102                IGNORED (+z -> -z)
            1        55       103                IGNORED (+z -> -z)
            1        55       104                IGNORED (+z -> -z)
            1        55       105                IGNORED (+z -> -z)
            1        55       106                IGNORED (+z -> -z)
            1        55       107                IGNORED (+z -> -z)
            1        55       108                IGNORED (+z -> -z)
 Geometry symmetrized to: C1
 Geometry reoriented with symmetry: C(LIN)
 Geometry symmetrized to: C1
 Geometry reoriented with symmetry: C(LIN)
 Geometry symmetrized to: C1
 Geometry reoriented with symmetry: C(LIN)
 Geometry symmetrized to: C1
 Geometry reoriented with symmetry: C(LIN)
 Geometry symmetrized to: C1
 Geometry reoriented with symmetry: C(LIN)
 Geometry symmetrized to: C1
 Geometry reoriented with symmetry: C(LIN)
 Geometry symmetrized to: C1
 Geometry reoriented with symmetry: C(LIN)
 Geometry symmetrized to: C1
 Geometry reoriented with symmetry: C(LIN)
 Geometry symmetrized to: C1
 Geometry reoriented with symmetry: C(LIN)
 Geometry symmetrized to: C1
 Geometry reoriented with symmetry: C(LIN)
 Geometry symmetrized to: C1
 Geometry reoriented with symmetry: C(LIN)
 Geometry symmetrized to: C1
 Geometry reoriented with symmetry: C(LIN)
 Geometry symmetrized to: C1
 Geometry reoriented with symmetry: C(LIN)
 Geometry symmetrized to: C1
 Geometry reoriented with symmetry: C(LIN)
 Geometry symmetrized to: C1
 Geometry reoriented with symmetry: C(LIN)
 Geometry symmetrized to: C1
 Geometry reoriented with symmetry: C(LIN)
            2        55         1      -7.651572     Old=>2
            2        56         2      -7.651572     New=>14
            2        57         3      -7.651572     New=>15
            2        58         4      -7.651572     New=>16
            2        59         5      -7.651572     New=>17
            2        60         6      -7.651572     New=>18
            2        61         7      -7.651572     New=>19
            2        62         8      -7.651572     New=>20
            2        63         9      -7.651572     New=>21
            2        64        10      -7.651572     Old=>2
            2        65        11      -7.651572     Old=>14
            2        66        12      -7.651572     Old=>15
            2        67        13      -7.651572     Old=>16
            2        68        14      -7.651572     Old=>17
            2        69        15      -7.651572     Old=>18
            2        70        16      -7.651572     Old=>19
            2        71        17      -7.651572     Old=>20
            2        72        18      -7.651572     Old=>21
            2        73        19      -7.651572     Old=>17
            2        74        20      -7.651572     Old=>21
            2        75        21      -7.651572     Old=>2
            2        76        22      -7.651572     Old=>20
            2        77        23      -7.651572     Old=>15
            2        78        24      -7.651572     Old=>16
            2        79        25      -7.651572     Old=>14
            2        80        26      -7.651572     Old=>18
            2        81        27      -7.651572     Old=>19
            2        82        28      -7.651572     Old=>17
            2        83        29      -7.651572     Old=>21
            2        84        30      -7.651572     Old=>2
            2        85        31      -7.651572     Old=>20
            2        86        32      -7.651572     Old=>15
            2        87        33      -7.651572     Old=>16
            2        88        34      -7.651572     Old=>14
            2        89        35      -7.651572     Old=>18
            2        90        36      -7.651572     Old=>19
            2        91        37      -7.651572     Old=>20
            2        92        38      -7.651572     Old=>15
            2        93        39      -7.651572     Old=>16
            2        94        40      -7.651572     Old=>14
            2        95        41      -7.651572     Old=>18
            2        96        42      -7.651572     Old=>19
            2        97        43      -7.651572     Old=>17
            2        98        44      -7.651572     Old=>21
            2        99        45      -7.651572     Old=>2
            2       100        46      -7.651572     Old=>20
            2       101        47      -7.651572     Old=>15
            2       102        48      -7.651572     Old=>16
            2       103        49      -7.651572     Old=>14
            2       104        50      -7.651572     Old=>18
            2       105        51      -7.651572     Old=>19
            2       106        52      -7.651572     Old=>17
            2       107        53      -7.651572     Old=>21
            2       108        54      -7.651572     Old=>2
            2       109        55                IGNORED (+z -> -z)
            2       109        56                IGNORED (+z -> -z)
            2       109        57                IGNORED (+z -> -z)
            2       109        58                IGNORED (+z -> -z)
            2       109        59                IGNORED (+z -> -z)
            2       109        60                IGNORED (+z -> -z)
            2       109        61                IGNORED (+z -> -z)
            2       109        62                IGNORED (+z -> -z)
            2       109        63                IGNORED (+z -> -z)
            2       109        64                IGNORED (+z -> -z)
            2       109        65                IGNORED (+z -> -z)
            2       109        66                IGNORED (+z -> -z)
            2       109        67                IGNORED (+z -> -z)
            2       109        68                IGNORED (+z -> -z)
            2       109        69                IGNORED (+z -> -z)
            2       109        70                IGNORED (+z -> -z)
            2       109        71                IGNORED (+z -> -z)
            2       109        72                IGNORED (+z -> -z)
            2       109        73                IGNORED (+z -> -z)
            2       109        74                IGNORED (+z -> -z)
            2       109        75                IGNORED (+z -> -z)
            2       109        76                IGNORED (+z -> -z)
            2       109        77                IGNORED (+z -> -z)
            2       109        78                IGNORED (+z -> -z)
            2       109        79                IGNORED (+z -> -z)
            2       109        80                IGNORED (+z -> -z)
            2       109        81                IGNORED (+z -> -z)
            2       109        82                IGNORED (+z -> -z)
            2       109        83                IGNORED (+z -> -z)
            2       109        84                IGNORED (+z -> -z)
            2       109        85                IGNORED (+z -> -z)
            2       109        86                IGNORED (+z -> -z)
            2       109        87                IGNORED (+z -> -z)
            2       109        88                IGNORED (+z -> -z)
            2       109        89                IGNORED (+z -> -z)
            2       109        90                IGNORED (+z -> -z)
            2       109        91                IGNORED (+z -> -z)
            2       109        92                IGNORED (+z -> -z)
            2       109        93                IGNORED (+z -> -z)
            2       109        94                IGNORED (+z -> -z)
            2       109        95                IGNORED (+z -> -z)
            2       109        96                IGNORED (+z -> -z)
            2       109        97                IGNORED (+z -> -z)
            2       109        98                IGNORED (+z -> -z)
            2       109        99                IGNORED (+z -> -z)
            2       109       100                IGNORED (+z -> -z)
            2       109       101                IGNORED (+z -> -z)
            2       109       102                IGNORED (+z -> -z)
            2       109       103                IGNORED (+z -> -z)
            2       109       104                IGNORED (+z -> -z)
            2       109       105                IGNORED (+z -> -z)
            2       109       106                IGNORED (+z -> -z)
            2       109       107                IGNORED (+z -> -z)
            2       109       108                IGNORED (+z -> -z)
 Geometry symmetrized to: C1
 Geometry reoriented with symmetry: C(LIN)
 Geometry symmetrized to: C1
 Geometry reoriented with symmetry: C(LIN)
 Geometry symmetrized to: C1
 Geometry reoriented with symmetry: C(LIN)
 Geometry symmetrized to: C1
 Geometry reoriented with symmetry: C(LIN)
 Geometry symmetrized to: C1
 Geometry reoriented with symmetry: C(LIN)
 Geometry symmetrized to: C1
 Geometry reoriented with symmetry: C(LIN)
 Geometry symmetrized to: C1
 Geometry reoriented with symmetry: C(LIN)
 Geometry symmetrized to: C1
 Geometry reoriented with symmetry: C(LIN)
 Geometry symmetrized to: C1
 Geometry reoriented with symmetry: C(LIN)
 Geometry symmetrized to: C1
 Geometry reoriented with symmetry: C(LIN)
 Geometry symmetrized to: C1
 Geometry reoriented with symmetry: C(LIN)
 Geometry symmetrized to: C1
 Geometry reoriented with symmetry: C(LIN)
 Geometry symmetrized to: C1
 Geometry reoriented with symmetry: C(LIN)
 Geometry symmetrized to: C1
 Geometry reoriented with symmetry: C(LIN)
 Geometry symmetrized to: C1
 Geometry reoriented with symmetry: C(LIN)
 Geometry symmetrized to: C1
 Geometry reoriented with symmetry: C(LIN)
            3       109         1      -7.623823     Old=>3
            3       110         2      -7.623823     New=>22
            3       111         3      -7.623823     New=>23
            3       112         4      -7.623823     New=>24
            3       113         5      -7.623823     New=>25
            3       114         6      -7.623823     New=>26
            3       115         7      -7.623823     New=>27
            3       116         8      -7.623823     New=>28
            3       117         9      -7.623823     New=>29
            3       118        10      -7.623823     New=>30
            3       119        11      -7.623823     New=>31
            3       120        12      -7.623823     New=>32
            3       121        13      -7.623823     New=>33
            3       122        14      -7.623823     New=>34
            3       123        15      -7.623823     New=>35
            3       124        16      -7.623823     New=>36
            3       125        17      -7.623823     New=>37
            3       126        18      -7.623823     New=>38
            3       127        19      -7.623823     Old=>25
            3       128        20      -7.623823     Old=>29
            3       129        21      -7.623823     Old=>3
            3       130        22      -7.623823     Old=>28
            3       131        23      -7.623823     Old=>23
            3       132        24      -7.623823     Old=>24
            3       133        25      -7.623823     Old=>22
            3       134        26      -7.623823     Old=>26
            3       135        27      -7.623823     Old=>27
            3       136        28      -7.623823     New=>39
            3       137        29      -7.623823     New=>40
            3       138        30      -7.623823     New=>41
            3       139        31      -7.623823     New=>42
            3       140        32      -7.623823     New=>43
            3       141        33      -7.623823     New=>44
            3       142        34      -7.623823     New=>45
            3       143        35      -7.623823     New=>46
            3       144        36      -7.623823     New=>47
            3       145        37      -7.623823     Old=>42
            3       146        38      -7.623823     Old=>43
            3       147        39      -7.623823     Old=>44
            3       148        40      -7.623823     Old=>45
            3       149        41      -7.623823     Old=>46
            3       150        42      -7.623823     Old=>47
            3       151        43      -7.623823     Old=>39
            3       152        44      -7.623823     Old=>40
            3       153        45      -7.623823     Old=>41
            3       154        46      -7.623823     Old=>37
            3       155        47      -7.623823     Old=>32
            3       156        48      -7.623823     Old=>33
            3       157        49      -7.623823     Old=>31
            3       158        50      -7.623823     Old=>35
            3       159        51      -7.623823     Old=>36
            3       160        52      -7.623823     Old=>34
            3       161        53      -7.623823     Old=>38
            3       162        54      -7.623823     Old=>30
            3       163        55                IGNORED (+z -> -z)
            3       163        56                IGNORED (+z -> -z)
            3       163        57                IGNORED (+z -> -z)
            3       163        58                IGNORED (+z -> -z)
            3       163        59                IGNORED (+z -> -z)
            3       163        60                IGNORED (+z -> -z)
            3       163        61                IGNORED (+z -> -z)
            3       163        62                IGNORED (+z -> -z)
            3       163        63                IGNORED (+z -> -z)
            3       163        64                IGNORED (+z -> -z)
            3       163        65                IGNORED (+z -> -z)
            3       163        66                IGNORED (+z -> -z)
            3       163        67                IGNORED (+z -> -z)
            3       163        68                IGNORED (+z -> -z)
            3       163        69                IGNORED (+z -> -z)
            3       163        70                IGNORED (+z -> -z)
            3       163        71                IGNORED (+z -> -z)
            3       163        72                IGNORED (+z -> -z)
            3       163        73                IGNORED (+z -> -z)
            3       163        74                IGNORED (+z -> -z)
            3       163        75                IGNORED (+z -> -z)
            3       163        76                IGNORED (+z -> -z)
            3       163        77                IGNORED (+z -> -z)
            3       163        78                IGNORED (+z -> -z)
            3       163        79                IGNORED (+z -> -z)
            3       163        80                IGNORED (+z -> -z)
            3       163        81                IGNORED (+z -> -z)
            3       163        82                IGNORED (+z -> -z)
            3       163        83                IGNORED (+z -> -z)
            3       163        84                IGNORED (+z -> -z)
            3       163        85                IGNORED (+z -> -z)
            3       163        86                IGNORED (+z -> -z)
            3       163        87                IGNORED (+z -> -z)
            3       163        88                IGNORED (+z -> -z)
            3       163        89                IGNORED (+z -> -z)
            3       163        90                IGNORED (+z -> -z)
            3       163        91                IGNORED (+z -> -z)
            3       163        92                IGNORED (+z -> -z)
            3       163        93                IGNORED (+z -> -z)
            3       163        94                IGNORED (+z -> -z)
            3       163        95                IGNORED (+z -> -z)
            3       163        96                IGNORED (+z -> -z)
            3       163        97                IGNORED (+z -> -z)
            3       163        98                IGNORED (+z -> -z)
            3       163        99                IGNORED (+z -> -z)
            3       163       100                IGNORED (+z -> -z)
            3       163       101                IGNORED (+z -> -z)
            3       163       102                IGNORED (+z -> -z)
            3       163       103                IGNORED (+z -> -z)
            3       163       104                IGNORED (+z -> -z)
            3       163       105                IGNORED (+z -> -z)
            3       163       106                IGNORED (+z -> -z)
            3       163       107                IGNORED (+z -> -z)
            3       163       108                IGNORED (+z -> -z)
 Geometry symmetrized to: C1
 Geometry reoriented with symmetry: C(LIN)
 Geometry symmetrized to: C1
 Geometry reoriented with symmetry: C(LIN)
 Geometry symmetrized to: C1
 Geometry reoriented with symmetry: C(LIN)
 Geometry symmetrized to: C1
 Geometry reoriented with symmetry: C(LIN)
 Geometry symmetrized to: C1
 Geometry reoriented with symmetry: C(LIN)
 Geometry symmetrized to: C1
 Geometry reoriented with symmetry: C(LIN)
 Geometry symmetrized to: C1
 Geometry reoriented with symmetry: C(LIN)
 Geometry symmetrized to: C1
 Geometry reoriented with symmetry: C(LIN)
 Geometry symmetrized to: C1
 Geometry reoriented with symmetry: C(LIN)
 Geometry symmetrized to: C1
 Geometry reoriented with symmetry: C(LIN)
 Geometry symmetrized to: C1
 Geometry reoriented with symmetry: C(LIN)
 Geometry symmetrized to: C1
 Geometry reoriented with symmetry: C(LIN)
 Geometry symmetrized to: C1
 Geometry reoriented with symmetry: C(LIN)
 Geometry symmetrized to: C1
 Geometry reoriented with symmetry: C(LIN)
 Geometry symmetrized to: C1
 Geometry reoriented with symmetry: C(LIN)
 Geometry symmetrized to: C1
 Geometry reoriented with symmetry: C(LIN)
 Geometry symmetrized to: C1
 Geometry reoriented with symmetry: C(LIN)
 Geometry symmetrized to: C1
 Geometry reoriented with symmetry: C(LIN)
 Geometry symmetrized to: C1
 Geometry reoriented with symmetry: C(LIN)
 Geometry symmetrized to: C1
 Geometry reoriented with symmetry: C(LIN)
 Geometry symmetrized to: C1
 Geometry reoriented with symmetry: C(LIN)
 Geometry symmetrized to: C1
 Geometry reoriented with symmetry: C(LIN)
 Geometry symmetrized to: C1
 Geometry reoriented with symmetry: C(LIN)
 Geometry symmetrized to: C1
 Geometry reoriented with symmetry: C(LIN)
 Geometry symmetrized to: C1
 Geometry reoriented with symmetry: C(LIN)
 Geometry symmetrized to: C1
 Geometry reoriented with symmetry: C(LIN)
 Geometry symmetrized to: C1
 Geometry reoriented with symmetry: C(LIN)
 Geometry symmetrized to: C1
 Geometry reoriented with symmetry: C(LIN)
 Geometry symmetrized to: C1
 Geometry reoriented with symmetry: C(LIN)
 Geometry symmetrized to: C1
 Geometry reoriented with symmetry: C(LIN)
 Geometry symmetrized to: C1
 Geometry reoriented with symmetry: C(LIN)
 Geometry symmetrized to: C1
 Geometry reoriented with symmetry: C(LIN)
 Geometry symmetrized to: C1
 Geometry reoriented with symmetry: C(LIN)
 Geometry symmetrized to: C1
 Geometry reoriented with symmetry: C(LIN)
 Geometry symmetrized to: C1
 Geometry reoriented with symmetry: C(LIN)
 Geometry symmetrized to: C1
 Geometry reoriented with symmetry: C(LIN)
 Geometry symmetrized to: C1
 Geometry reoriented with symmetry: C(LIN)
 Geometry symmetrized to: C1
 Geometry reoriented with symmetry: C(LIN)
 Geometry symmetrized to: C1
 Geometry reoriented with symmetry: C(LIN)
 Geometry symmetrized to: C1
 Geometry reoriented with symmetry: C(LIN)
 Geometry symmetrized to: C1
 Geometry reoriented with symmetry: C(LIN)
 Geometry symmetrized to: C1
 Geometry reoriented with symmetry: C(LIN)
 Geometry symmetrized to: C1
 Geometry reoriented with symmetry: C(LIN)
 Geometry symmetrized to: C1
 Geometry reoriented with symmetry: C(LIN)
 Geometry symmetrized to: C1
 Geometry reoriented with symmetry: C(LIN)
 Geometry symmetrized to: C1
 Geometry reoriented with symmetry: C(LIN)
 Geometry symmetrized to: C1
 Geometry reoriented with symmetry: C(LIN)
 Geometry symmetrized to: C1
 Geometry reoriented with symmetry: C(LIN)
 Geometry symmetrized to: C1
 Geometry reoriented with symmetry: C(LIN)
 Geometry symmetrized to: C1
 Geometry reoriented with symmetry: C(LIN)
 Geometry symmetrized to: C1
 Geometry reoriented with symmetry: C(LIN)
 Geometry symmetrized to: C1
 Geometry reoriented with symmetry: C(LIN)
            4       163         1      -7.651572     Old=>2
            4       164         1      -7.623823     Old=>3
            4       165         1      -7.622548   OldTS=>4
            4       166         2      -7.651572     Old=>14
            4       167         2      -7.623823     Old=>22
            4       168         2      -7.622548   NewTS=>48
            4       169         3      -7.651572     Old=>15
            4       170         3      -7.623823     Old=>23
            4       171         3      -7.622548   NewTS=>49
            4       172         4      -7.651572     Old=>16
            4       173         4      -7.623823     Old=>24
            4       174         4      -7.622548   NewTS=>50
            4       175         5      -7.651572     Old=>17
            4       176         5      -7.623823     Old=>25
            4       177         5      -7.622548   NewTS=>51
            4       178         6      -7.651572     Old=>18
            4       179         6      -7.623823     Old=>26
            4       180         6      -7.622548   NewTS=>52
            4       181         7      -7.651572     Old=>19
            4       182         7      -7.623823     Old=>27
            4       183         7      -7.622548   NewTS=>53
            4       184         8      -7.651572     Old=>20
            4       185         8      -7.623823     Old=>28
            4       186         8      -7.622548   NewTS=>54
            4       187         9      -7.651572     Old=>21
            4       188         9      -7.623823     Old=>29
            4       189         9      -7.622548   NewTS=>55
            4       190        10      -7.651572     Old=>2
            4       191        10      -7.623823     Old=>30
            4       192        10      -7.622548   NewTS=>56
            4       193        11      -7.651572     Old=>14
            4       194        11      -7.623823     Old=>31
            4       195        11      -7.622548   NewTS=>57
            4       196        12      -7.651572     Old=>15
            4       197        12      -7.623823     Old=>32
            4       198        12      -7.622548   NewTS=>58
            4       199        13      -7.651572     Old=>16
            4       200        13      -7.623823     Old=>33
            4       201        13      -7.622548   NewTS=>59
            4       202        14      -7.651572     Old=>17
            4       203        14      -7.623823     Old=>34
            4       204        14      -7.622548   NewTS=>60
            4       205        15      -7.651572     Old=>18
            4       206        15      -7.623823     Old=>35
            4       207        15      -7.622548   NewTS=>61
            4       208        16      -7.651572     Old=>19
            4       209        16      -7.623823     Old=>36
            4       210        16      -7.622548   NewTS=>62
            4       211        17      -7.651572     Old=>20
            4       212        17      -7.623823     Old=>37
            4       213        17      -7.622548   NewTS=>63
            4       214        18      -7.651572     Old=>21
            4       215        18      -7.623823     Old=>38
            4       216        18      -7.622548   NewTS=>64
            4       217        19      -7.651572     Old=>17
            4       218        19      -7.623823     Old=>25
            4       219        19      -7.622548   OldTS=>51
            4       220        20      -7.651572     Old=>21
            4       221        20      -7.623823     Old=>29
            4       222        20      -7.622548   OldTS=>55
            4       223        21      -7.651572     Old=>2
            4       224        21      -7.623823     Old=>3
            4       225        21      -7.622548   OldTS=>4
            4       226        22      -7.651572     Old=>20
            4       227        22      -7.623823     Old=>28
            4       228        22      -7.622548   OldTS=>54
            4       229        23      -7.651572     Old=>15
            4       230        23      -7.623823     Old=>23
            4       231        23      -7.622548   OldTS=>49
            4       232        24      -7.651572     Old=>16
            4       233        24      -7.623823     Old=>24
            4       234        24      -7.622548   OldTS=>50
            4       235        25      -7.651572     Old=>14
            4       236        25      -7.623823     Old=>22
            4       237        25      -7.622548   OldTS=>48
            4       238        26      -7.651572     Old=>18
            4       239        26      -7.623823     Old=>26
            4       240        26      -7.622548   OldTS=>52
            4       241        27      -7.651572     Old=>19
            4       242        27      -7.623823     Old=>27
            4       243        27      -7.622548   OldTS=>53
            4       244        28      -7.651572     Old=>17
            4       245        28      -7.623823     Old=>39
            4       246        28      -7.622548   NewTS=>65
            4       247        29      -7.651572     Old=>21
            4       248        29      -7.623823     Old=>40
            4       249        29      -7.622548   NewTS=>66
            4       250        30      -7.651572     Old=>2
            4       251        30      -7.623823     Old=>41
            4       252        30      -7.622548   NewTS=>67
            4       253        31      -7.651572     Old=>20
            4       254        31      -7.623823     Old=>42
            4       255        31      -7.622548   NewTS=>68
            4       256        32      -7.651572     Old=>15
            4       257        32      -7.623823     Old=>43
            4       258        32      -7.622548   NewTS=>69
            4       259        33      -7.651572     Old=>16
            4       260        33      -7.623823     Old=>44
            4       261        33      -7.622548   NewTS=>70
            4       262        34      -7.651572     Old=>14
            4       263        34      -7.623823     Old=>45
            4       264        34      -7.622548   NewTS=>71
            4       265        35      -7.651572     Old=>18
            4       266        35      -7.623823     Old=>46
            4       267        35      -7.622548   NewTS=>72
            4       268        36      -7.651572     Old=>19
            4       269        36      -7.623823     Old=>47
            4       270        36      -7.622548   NewTS=>73
            4       271        37      -7.651572     Old=>20
            4       272        37      -7.623823     Old=>42
            4       273        37      -7.622548   OldTS=>68
            4       274        38      -7.651572     Old=>15
            4       275        38      -7.623823     Old=>43
            4       276        38      -7.622548   OldTS=>69
            4       277        39      -7.651572     Old=>16
            4       278        39      -7.623823     Old=>44
            4       279        39      -7.622548   OldTS=>70
            4       280        40      -7.651572     Old=>14
            4       281        40      -7.623823     Old=>45
            4       282        40      -7.622548   OldTS=>71
            4       283        41      -7.651572     Old=>18
            4       284        41      -7.623823     Old=>46
            4       285        41      -7.622548   OldTS=>72
            4       286        42      -7.651572     Old=>19
            4       287        42      -7.623823     Old=>47
            4       288        42      -7.622548   OldTS=>73
            4       289        43      -7.651572     Old=>17
            4       290        43      -7.623823     Old=>39
            4       291        43      -7.622548   OldTS=>65
            4       292        44      -7.651572     Old=>21
            4       293        44      -7.623823     Old=>40
            4       294        44      -7.622548   OldTS=>66
            4       295        45      -7.651572     Old=>2
            4       296        45      -7.623823     Old=>41
            4       297        45      -7.622548   OldTS=>67
            4       298        46      -7.651572     Old=>20
            4       299        46      -7.623823     Old=>37
            4       300        46      -7.622548   OldTS=>63
            4       301        47      -7.651572     Old=>15
            4       302        47      -7.623823     Old=>32
            4       303        47      -7.622548   OldTS=>58
            4       304        48      -7.651572     Old=>16
            4       305        48      -7.623823     Old=>33
            4       306        48      -7.622548   OldTS=>59
            4       307        49      -7.651572     Old=>14
            4       308        49      -7.623823     Old=>31
            4       309        49      -7.622548   OldTS=>57
            4       310        50      -7.651572     Old=>18
            4       311        50      -7.623823     Old=>35
            4       312        50      -7.622548   OldTS=>61
            4       313        51      -7.651572     Old=>19
            4       314        51      -7.623823     Old=>36
            4       315        51      -7.622548   OldTS=>62
            4       316        52      -7.651572     Old=>17
            4       317        52      -7.623823     Old=>34
            4       318        52      -7.622548   OldTS=>60
            4       319        53      -7.651572     Old=>21
            4       320        53      -7.623823     Old=>38
            4       321        53      -7.622548   OldTS=>64
            4       322        54      -7.651572     Old=>2
            4       323        54      -7.623823     Old=>30
            4       324        54      -7.622548   OldTS=>56
            4       325        55                IGNORED (+z -> -z)
            4       325        56                IGNORED (+z -> -z)
            4       325        57                IGNORED (+z -> -z)
            4       325        58                IGNORED (+z -> -z)
            4       325        59                IGNORED (+z -> -z)
            4       325        60                IGNORED (+z -> -z)
            4       325        61                IGNORED (+z -> -z)
            4       325        62                IGNORED (+z -> -z)
            4       325        63                IGNORED (+z -> -z)
            4       325        64                IGNORED (+z -> -z)
            4       325        65                IGNORED (+z -> -z)
            4       325        66                IGNORED (+z -> -z)
            4       325        67                IGNORED (+z -> -z)
            4       325        68                IGNORED (+z -> -z)
            4       325        69                IGNORED (+z -> -z)
            4       325        70                IGNORED (+z -> -z)
            4       325        71                IGNORED (+z -> -z)
            4       325        72                IGNORED (+z -> -z)
            4       325        73                IGNORED (+z -> -z)
            4       325        74                IGNORED (+z -> -z)
            4       325        75                IGNORED (+z -> -z)
            4       325        76                IGNORED (+z -> -z)
            4       325        77                IGNORED (+z -> -z)
            4       325        78                IGNORED (+z -> -z)
            4       325        79                IGNORED (+z -> -z)
            4       325        80                IGNORED (+z -> -z)
            4       325        81                IGNORED (+z -> -z)
            4       325        82                IGNORED (+z -> -z)
            4       325        83                IGNORED (+z -> -z)
            4       325        84                IGNORED (+z -> -z)
            4       325        85                IGNORED (+z -> -z)
            4       325        86                IGNORED (+z -> -z)
            4       325        87                IGNORED (+z -> -z)
            4       325        88                IGNORED (+z -> -z)
            4       325        89                IGNORED (+z -> -z)
            4       325        90                IGNORED (+z -> -z)
            4       325        91                IGNORED (+z -> -z)
            4       325        92                IGNORED (+z -> -z)
            4       325        93                IGNORED (+z -> -z)
            4       325        94                IGNORED (+z -> -z)
            4       325        95                IGNORED (+z -> -z)
            4       325        96                IGNORED (+z -> -z)
            4       325        97                IGNORED (+z -> -z)
            4       325        98                IGNORED (+z -> -z)
            4       325        99                IGNORED (+z -> -z)
            4       325       100                IGNORED (+z -> -z)
            4       325       101                IGNORED (+z -> -z)
            4       325       102                IGNORED (+z -> -z)
            4       325       103                IGNORED (+z -> -z)
            4       325       104                IGNORED (+z -> -z)
            4       325       105                IGNORED (+z -> -z)
            4       325       106                IGNORED (+z -> -z)
            4       325       107                IGNORED (+z -> -z)
            4       325       108                IGNORED (+z -> -z)
            5       325         1      -7.651642     Old=>1
            5       326         1      -7.623823     Old=>3
            5       327         1      -7.622431   OldTS=>5
            5       328         2      -7.651642     Old=>6
            5       329         2      -7.623823     Old=>22
            5       330         2      -7.622431   NewTS=>74
            5       331         3      -7.651642     Old=>7
            5       332         3      -7.623823     Old=>23
            5       333         3      -7.622431   NewTS=>75
            5       334         4      -7.651642     Old=>8
            5       335         4      -7.623823     Old=>24
            5       336         4      -7.622431   NewTS=>76
            5       337         5      -7.651642     Old=>9
            5       338         5      -7.623823     Old=>25
            5       339         5      -7.622431   NewTS=>77
            5       340         6      -7.651642     Old=>10
            5       341         6      -7.623823     Old=>26
            5       342         6      -7.622431   NewTS=>78
            5       343         7      -7.651642     Old=>11
            5       344         7      -7.623823     Old=>27
            5       345         7      -7.622431   NewTS=>79
            5       346         8      -7.651642     Old=>12
            5       347         8      -7.623823     Old=>28
            5       348         8      -7.622431   NewTS=>80
            5       349         9      -7.651642     Old=>13
            5       350         9      -7.623823     Old=>29
            5       351         9      -7.622431   NewTS=>81
            5       352        10      -7.651642     Old=>11
            5       353        10      -7.623823     Old=>30
            5       354        10      -7.622431   NewTS=>82
            5       355        11      -7.651642     Old=>12
            5       356        11      -7.623823     Old=>31
            5       357        11      -7.622431   NewTS=>83
            5       358        12      -7.651642     Old=>13
            5       359        12      -7.623823     Old=>32
            5       360        12      -7.622431   NewTS=>84
            5       361        13      -7.651642     Old=>1
            5       362        13      -7.623823     Old=>33
            5       363        13      -7.622431   NewTS=>85
            5       364        14      -7.651642     Old=>6
            5       365        14      -7.623823     Old=>34
            5       366        14      -7.622431   NewTS=>86
            5       367        15      -7.651642     Old=>7
            5       368        15      -7.623823     Old=>35
            5       369        15      -7.622431   NewTS=>87
            5       370        16      -7.651642     Old=>8
            5       371        16      -7.623823     Old=>36
            5       372        16      -7.622431   NewTS=>88
            5       373        17      -7.651642     Old=>9
            5       374        17      -7.623823     Old=>37
            5       375        17      -7.622431   NewTS=>89
            5       376        18      -7.651642     Old=>10
            5       377        18      -7.623823     Old=>38
            5       378        18      -7.622431   NewTS=>90
            5       379        19      -7.651642     Old=>9
            5       380        19      -7.623823     Old=>25
            5       381        19      -7.622431   OldTS=>77
            5       382        20      -7.651642     Old=>13
            5       383        20      -7.623823     Old=>29
            5       384        20      -7.622431   OldTS=>81
            5       385        21      -7.651642     Old=>1
            5       386        21      -7.623823     Old=>3
            5       387        21      -7.622431   OldTS=>5
            5       388        22      -7.651642     Old=>12
            5       389        22      -7.623823     Old=>28
            5       390        22      -7.622431   OldTS=>80
            5       391        23      -7.651642     Old=>7
            5       392        23      -7.623823     Old=>23
            5       393        23      -7.622431   OldTS=>75
            5       394        24      -7.651642     Old=>8
            5       395        24      -7.623823     Old=>24
            5       396        24      -7.622431   OldTS=>76
            5       397        25      -7.651642     Old=>6
            5       398        25      -7.623823     Old=>22
            5       399        25      -7.622431   OldTS=>74
            5       400        26      -7.651642     Old=>10
            5       401        26      -7.623823     Old=>26
            5       402        26      -7.622431   OldTS=>78
            5       403        27      -7.651642     Old=>11
            5       404        27      -7.623823     Old=>27
            5       405        27      -7.622431   OldTS=>79
            5       406        28      -7.651642     Old=>11
            5       407        28      -7.623823     Old=>39
            5       408        28      -7.622431   NewTS=>91
            5       409        29      -7.651642     Old=>12
            5       410        29      -7.623823     Old=>40
            5       411        29      -7.622431   NewTS=>92
            5       412        30      -7.651642     Old=>13
            5       413        30      -7.623823     Old=>41
            5       414        30      -7.622431   NewTS=>93
            5       415        31      -7.651642     Old=>1
            5       416        31      -7.623823     Old=>42
            5       417        31      -7.622431   NewTS=>94
            5       418        32      -7.651642     Old=>6
            5       419        32      -7.623823     Old=>43
            5       420        32      -7.622431   NewTS=>95
            5       421        33      -7.651642     Old=>7
            5       422        33      -7.623823     Old=>44
            5       423        33      -7.622431   NewTS=>96
            5       424        34      -7.651642     Old=>8
            5       425        34      -7.623823     Old=>45
            5       426        34      -7.622431   NewTS=>97
            5       427        35      -7.651642     Old=>9
            5       428        35      -7.623823     Old=>46
            5       429        35      -7.622431   NewTS=>98
            5       430        36      -7.651642     Old=>10
            5       431        36      -7.623823     Old=>47
            5       432        36      -7.622431   NewTS=>99
            5       433        37      -7.651642     Old=>1
            5       434        37      -7.623823     Old=>42
            5       435        37      -7.622431   OldTS=>94
            5       436        38      -7.651642     Old=>6
            5       437        38      -7.623823     Old=>43
            5       438        38      -7.622431   OldTS=>95
            5       439        39      -7.651642     Old=>7
            5       440        39      -7.623823     Old=>44
            5       441        39      -7.622431   OldTS=>96
            5       442        40      -7.651642     Old=>8
            5       443        40      -7.623823     Old=>45
            5       444        40      -7.622431   OldTS=>97
            5       445        41      -7.651642     Old=>9
            5       446        41      -7.623823     Old=>46
            5       447        41      -7.622431   OldTS=>98
            5       448        42      -7.651642     Old=>10
            5       449        42      -7.623823     Old=>47
            5       450        42      -7.622431   OldTS=>99
            5       451        43      -7.651642     Old=>11
            5       452        43      -7.623823     Old=>39
            5       453        43      -7.622431   OldTS=>91
            5       454        44      -7.651642     Old=>12
            5       455        44      -7.623823     Old=>40
            5       456        44      -7.622431   OldTS=>92
            5       457        45      -7.651642     Old=>13
            5       458        45      -7.623823     Old=>41
            5       459        45      -7.622431   OldTS=>93
            5       460        46      -7.651642     Old=>9
            5       461        46      -7.623823     Old=>37
            5       462        46      -7.622431   OldTS=>89
            5       463        47      -7.651642     Old=>13
            5       464        47      -7.623823     Old=>32
            5       465        47      -7.622431   OldTS=>84
            5       466        48      -7.651642     Old=>1
            5       467        48      -7.623823     Old=>33
            5       468        48      -7.622431   OldTS=>85
            5       469        49      -7.651642     Old=>12
            5       470        49      -7.623823     Old=>31
            5       471        49      -7.622431   OldTS=>83
            5       472        50      -7.651642     Old=>7
            5       473        50      -7.623823     Old=>35
            5       474        50      -7.622431   OldTS=>87
            5       475        51      -7.651642     Old=>8
            5       476        51      -7.623823     Old=>36
            5       477        51      -7.622431   OldTS=>88
            5       478        52      -7.651642     Old=>6
            5       479        52      -7.623823     Old=>34
            5       480        52      -7.622431   OldTS=>86
            5       481        53      -7.651642     Old=>10
            5       482        53      -7.623823     Old=>38
            5       483        53      -7.622431   OldTS=>90
            5       484        54      -7.651642     Old=>11
            5       485        54      -7.623823     Old=>30
            5       486        54      -7.622431   OldTS=>82
            5       487        55                IGNORED (+z -> -z)
            5       487        56                IGNORED (+z -> -z)
            5       487        57                IGNORED (+z -> -z)
            5       487        58                IGNORED (+z -> -z)
            5       487        59                IGNORED (+z -> -z)
            5       487        60                IGNORED (+z -> -z)
            5       487        61                IGNORED (+z -> -z)
            5       487        62                IGNORED (+z -> -z)
            5       487        63                IGNORED (+z -> -z)
            5       487        64                IGNORED (+z -> -z)
            5       487        65                IGNORED (+z -> -z)
            5       487        66                IGNORED (+z -> -z)
            5       487        67                IGNORED (+z -> -z)
            5       487        68                IGNORED (+z -> -z)
            5       487        69                IGNORED (+z -> -z)
            5       487        70                IGNORED (+z -> -z)
            5       487        71                IGNORED (+z -> -z)
            5       487        72                IGNORED (+z -> -z)
            5       487        73                IGNORED (+z -> -z)
            5       487        74                IGNORED (+z -> -z)
            5       487        75                IGNORED (+z -> -z)
            5       487        76                IGNORED (+z -> -z)
            5       487        77                IGNORED (+z -> -z)
            5       487        78                IGNORED (+z -> -z)
            5       487        79                IGNORED (+z -> -z)
            5       487        80                IGNORED (+z -> -z)
            5       487        81                IGNORED (+z -> -z)
            5       487        82                IGNORED (+z -> -z)
            5       487        83                IGNORED (+z -> -z)
            5       487        84                IGNORED (+z -> -z)
            5       487        85                IGNORED (+z -> -z)
            5       487        86                IGNORED (+z -> -z)
            5       487        87                IGNORED (+z -> -z)
            5       487        88                IGNORED (+z -> -z)
            5       487        89                IGNORED (+z -> -z)
            5       487        90                IGNORED (+z -> -z)
            5       487        91                IGNORED (+z -> -z)
            5       487        92                IGNORED (+z -> -z)
            5       487        93                IGNORED (+z -> -z)
            5       487        94                IGNORED (+z -> -z)
            5       487        95                IGNORED (+z -> -z)
            5       487        96                IGNORED (+z -> -z)
            5       487        97                IGNORED (+z -> -z)
            5       487        98                IGNORED (+z -> -z)
            5       487        99                IGNORED (+z -> -z)
            5       487       100                IGNORED (+z -> -z)
            5       487       101                IGNORED (+z -> -z)
            5       487       102                IGNORED (+z -> -z)
            5       487       103                IGNORED (+z -> -z)
            5       487       104                IGNORED (+z -> -z)
            5       487       105                IGNORED (+z -> -z)
            5       487       106                IGNORED (+z -> -z)
            5       487       107                IGNORED (+z -> -z)
            5       487       108                IGNORED (+z -> -z)

----------------
Energy Landscape
----------------

        Id        Energy(a.u.)         RE(eV)   RE(kcal/mol)    Counts    Crit. point
     --------------------------------------------------------------------------------
         1           -7.651642        0.00000         0.0000        13            Min
         2           -7.651572        0.00191         0.0440        13            Min
         3           -7.623823        0.75698        17.4564         7            Min
         4           -7.622548        0.79170        18.2570        12             TS 2<-->3    
         5           -7.622431        0.79488        18.3303         5             TS 1<-->3    
         6           -7.651642        0.00000         0.0000        12            Min
         7           -7.651642        0.00000         0.0000        12            Min
         8           -7.651642        0.00000         0.0000        12            Min
         9           -7.651642        0.00000         0.0000        12            Min
        10           -7.651642        0.00000         0.0000        12            Min
        11           -7.651642        0.00000         0.0000        12            Min
        12           -7.651642        0.00000         0.0000        12            Min
        13           -7.651642        0.00000         0.0000        12            Min
        14           -7.651572        0.00191         0.0440        12            Min
        15           -7.651572        0.00191         0.0440        12            Min
        16           -7.651572        0.00191         0.0440        12            Min
        17           -7.651572        0.00191         0.0440        12            Min
        18           -7.651572        0.00191         0.0440        12            Min
        19           -7.651572        0.00191         0.0440        12            Min
        20           -7.651572        0.00191         0.0440        12            Min
        21           -7.651572        0.00191         0.0440        12            Min
        22           -7.623823        0.75698        17.4564         6            Min
        23           -7.623823        0.75698        17.4564         6            Min
        24           -7.623823        0.75698        17.4564         6            Min
        25           -7.623823        0.75698        17.4564         6            Min
        26           -7.623823        0.75698        17.4564         6            Min
        27           -7.623823        0.75698        17.4564         6            Min
        28           -7.623823        0.75698        17.4564         6            Min
        29           -7.623823        0.75698        17.4564         6            Min
        30           -7.623823        0.75698        17.4564         6            Min
        31           -7.623823        0.75698        17.4564         6            Min
        32           -7.623823        0.75698        17.4564         6            Min
        33           -7.623823        0.75698        17.4564         6            Min
        34           -7.623823        0.75698        17.4564         6            Min
        35           -7.623823        0.75698        17.4564         6            Min
        36           -7.623823        0.75698        17.4564         6            Min
        37           -7.623823        0.75698        17.4564         6            Min
        38           -7.623823        0.75698        17.4564         6            Min
        39           -7.623823        0.75698        17.4564         6            Min
        40           -7.623823        0.75698        17.4564         6            Min
        41           -7.623823        0.75698        17.4564         6            Min
        42           -7.623823        0.75698        17.4564         6            Min
        43           -7.623823        0.75698        17.4564         6            Min
        44           -7.623823        0.75698        17.4564         6            Min
        45           -7.623823        0.75698        17.4564         6            Min
        46           -7.623823        0.75698        17.4564         6            Min
        47           -7.623823        0.75698        17.4564         6            Min
        48           -7.622548        0.79170        18.2570         2             TS 14<-->22  
        49           -7.622548        0.79170        18.2570         2             TS 15<-->23  
        50           -7.622548        0.79170        18.2570         2             TS 16<-->24  
        51           -7.622548        0.79170        18.2570         2             TS 17<-->25  
        52           -7.622548        0.79170        18.2570         2             TS 18<-->26  
        53           -7.622548        0.79170        18.2570         2             TS 19<-->27  
        54           -7.622548        0.79170        18.2570         2             TS 20<-->28  
        55           -7.622548        0.79170        18.2570         2             TS 21<-->29  
        56           -7.622548        0.79170        18.2570         2             TS 2<-->30   
        57           -7.622548        0.79170        18.2570         2             TS 14<-->31  
        58           -7.622548        0.79170        18.2570         2             TS 15<-->32  
        59           -7.622548        0.79170        18.2570         2             TS 16<-->33  
        60           -7.622548        0.79170        18.2570         2             TS 17<-->34  
        61           -7.622548        0.79170        18.2570         2             TS 18<-->35  
        62           -7.622548        0.79170        18.2570         2             TS 19<-->36  
        63           -7.622548        0.79170        18.2570         2             TS 20<-->37  
        64           -7.622548        0.79170        18.2570         2             TS 21<-->38  
        65           -7.622548        0.79170        18.2570         2             TS 17<-->39  
        66           -7.622548        0.79170        18.2570         2             TS 21<-->40  
        67           -7.622548        0.79170        18.2570         2             TS 2<-->41   
        68           -7.622548        0.79170        18.2570         2             TS 20<-->42  
        69           -7.622548        0.79170        18.2570         2             TS 15<-->43  
        70           -7.622548        0.79170        18.2570         2             TS 16<-->44  
        71           -7.622548        0.79170        18.2570         2             TS 14<-->45  
        72           -7.622548        0.79170        18.2570         2             TS 18<-->46  
        73           -7.622548        0.79170        18.2570         2             TS 19<-->47  
        74           -7.622431        0.79488        18.3303         2             TS 6<-->22   
        75           -7.622431        0.79488        18.3303         2             TS 7<-->23   
        76           -7.622431        0.79488        18.3303         2             TS 8<-->24   
        77           -7.622431        0.79488        18.3303         2             TS 9<-->25   
        78           -7.622431        0.79488        18.3303         2             TS 10<-->26  
        79           -7.622431        0.79488        18.3303         2             TS 11<-->27  
        80           -7.622431        0.79488        18.3303         2             TS 12<-->28  
        81           -7.622431        0.79488        18.3303         2             TS 13<-->29  
        82           -7.622431        0.79488        18.3303         2             TS 11<-->30  
        83           -7.622431        0.79488        18.3303         2             TS 12<-->31  
        84           -7.622431        0.79488        18.3303         2             TS 13<-->32  
        85           -7.622431        0.79488        18.3303         2             TS 1<-->33   
        86           -7.622431        0.79488        18.3303         2             TS 6<-->34   
        87           -7.622431        0.79488        18.3303         2             TS 7<-->35   
        88           -7.622431        0.79488        18.3303         2             TS 8<-->36   
        89           -7.622431        0.79488        18.3303         2             TS 9<-->37   
        90           -7.622431        0.79488        18.3303         2             TS 10<-->38  
        91           -7.622431        0.79488        18.3303         2             TS 11<-->39  
        92           -7.622431        0.79488        18.3303         2             TS 12<-->40  
        93           -7.622431        0.79488        18.3303         2             TS 13<-->41  
        94           -7.622431        0.79488        18.3303         2             TS 1<-->42   
        95           -7.622431        0.79488        18.3303         2             TS 6<-->43   
        96           -7.622431        0.79488        18.3303         2             TS 7<-->44   
        97           -7.622431        0.79488        18.3303         2             TS 8<-->45   
        98           -7.622431        0.79488        18.3303         2             TS 9<-->46   
        99           -7.622431        0.79488        18.3303         2             TS 10<-->47  

Number of configurations                            99
Number of local minima                              45
Number of transition states                         54
Energy range (a.u.)                           0.029211
Energy range (eV)                              0.79488
Energy range (kcal/mol)                        18.3303

Fragments
---------

Number of fragments                                  2

        Id             Formula        Energy(a.u.)              Region
     -----------------------------------------------------------------
         1                  CO           -0.424454              active
         2                Pt36           -7.154286             surface

Fragmented States
-----------------

Number of fragmented states                          1

        Id           Fragments        Energy(a.u.)         RE(eV)   RE(kcal/mol)
     ---------------------------------------------------------------------------
         1                 1,2           -7.578740        1.98376        45.7466 -->1         8.05E+06:1.66E+16*
                                                                                 -->2         8.05E+06:1.64E+16 
                                                                                 -->3         8.05E+06:2.37E+15 
                                                                                 -->6         8.05E+06:1.66E+16 
                                                                                 -->7         8.05E+06:1.66E+16 
                                                                                 -->8         8.05E+06:1.66E+16 
                                                                                 -->9         8.05E+06:1.66E+16 
                                                                                 -->10        8.05E+06:1.66E+16 
                                                                                 -->11        8.05E+06:1.66E+16 
                                                                                 -->12        8.05E+06:1.66E+16 
                                                                                 -->13        8.05E+06:1.66E+16 
                                                                                 -->14        8.05E+06:1.64E+16 
                                                                                 -->15        8.05E+06:1.64E+16 
                                                                                 -->16        8.05E+06:1.64E+16 
                                                                                 -->17        8.05E+06:1.64E+16 
                                                                                 -->18        8.05E+06:1.64E+16 
                                                                                 -->19        8.05E+06:1.64E+16 
                                                                                 -->20        8.05E+06:1.64E+16 
                                                                                 -->21        8.05E+06:1.64E+16 
                                                                                 -->22        8.05E+06:2.37E+15 
                                                                                 -->23        8.05E+06:2.37E+15 
                                                                                 -->24        8.05E+06:2.37E+15 
                                                                                 -->25        8.05E+06:2.37E+15 
[...]
  205   N2222      26       1      -7.623823        5.08286        2.16624        9.50066
  206   N3333       4       1      -7.651642        3.69820        3.75531        9.52301
  207   N2222      36       1      -7.623823        3.69693        4.56674        9.50066
  208   N3333       4       1      -7.651642        3.69820        3.75531        9.52301
  209   N2222      36       1      -7.623823        3.69693        4.56674        9.50066
  210   N3333       5       1      -7.651642        5.08413        1.35481        9.52301
  211   N2222      37       1      -7.623823        5.78622        0.94799        9.50066
  212   N3333       5       1      -7.651642        5.08413        1.35481        9.52301
  213   N2222      37       1      -7.623823        5.78622        0.94799        9.50066
  214   N3333       6       1      -7.651642       10.62785        6.15581        9.52301
  215   N2222      33       1      -7.623823       11.32994        5.74899        9.50066
  216   N3333       6       1      -7.651642       10.62785        6.15581        9.52301
  217   N2222      33       1      -7.623823       11.32994        5.74899        9.50066
  218   N3333       6       1      -7.651642       10.62785        6.15581        9.52301
  219   N2222      35       1      -7.623823       10.62658        6.96724        9.50066
  220   N3333       6       1      -7.651642       10.62785        6.15581        9.52301
  221   N2222      35       1      -7.623823       10.62658        6.96724        9.50066
  222   N3333       7       1      -7.651642        9.24192        3.75531        9.52301
  223   N2222      32       1      -7.623823        9.94401        3.34849        9.50066
  224   N3333       7       1      -7.651642        9.24192        3.75531        9.52301
  225   N2222      32       1      -7.623823        9.94401        3.34849        9.50066
  226   N3333       8       1      -7.651642        7.85599        6.15581        9.52301
  227   N2222      34       1      -7.623823        7.85472        6.96724        9.50066
  228   N3333       8       1      -7.651642        7.85599        6.15581        9.52301
  229   N2222      34       1      -7.623823        7.85472        6.96724        9.50066
  230   N3333       6       1      -7.651642       10.62785        6.15581        9.52301
  231   N2222      41       1      -7.623823        9.92333        5.74899        9.50066
  232   N3333       6       1      -7.651642       10.62785        6.15581        9.52301
  233   N2222      41       1      -7.623823        9.92333        5.74899        9.50066
  234   N3333       7       1      -7.651642        9.24192        3.75531        9.52301
  235   N2222      40       1      -7.623823        8.53740        3.34849        9.50066
  236   N3333       7       1      -7.651642        9.24192        3.75531        9.52301
  237   N2222      40       1      -7.623823        8.53740        3.34849        9.50066
  238   N3333       8       1      -7.651642        7.85599        6.15581        9.52301
  239   N2222      39       1      -7.623823        7.15147        5.74899        9.50066
  240   N3333       8       1      -7.651642        7.85599        6.15581        9.52301
  241   N2222      39       1      -7.623823        7.15147        5.74899        9.50066
  242   N3333       7       1      -7.651642        9.24192        3.75531        9.52301
  243   N2222      44       1      -7.623823        9.24065        4.56674        9.50066
  244   N3333       7       1      -7.651642        9.24192        3.75531        9.52301
  245   N2222      44       1      -7.623823        9.24065        4.56674        9.50066
  246   N3333       8       1      -7.651642        7.85599        6.15581        9.52301
  247   N2222      45       1      -7.623823        8.55808        5.74899        9.50066
  248   N3333       8       1      -7.651642        7.85599        6.15581        9.52301
  249   N2222      45       1      -7.623823        8.55808        5.74899        9.50066
  250   N3333       9       1      -7.651642        6.47006        3.75531        9.52301
  251   N2222      38       1      -7.623823        5.76554        3.34849        9.50066
  252   N3333       9       1      -7.651642        6.47006        3.75531        9.52301
  253   N2222      38       1      -7.623823        5.76554        3.34849        9.50066
  254   N3333       9       1      -7.651642        6.47006        3.75531        9.52301
  255   N2222      43       1      -7.623823        7.17215        3.34849        9.50066
  256   N3333       9       1      -7.651642        6.47006        3.75531        9.52301
  257   N2222      43       1      -7.623823        7.17215        3.34849        9.50066
  258   N3333       9       1      -7.651642        6.47006        3.75531        9.52301
  259   N2222      42       1      -7.623823        6.46879        4.56674        9.50066
  260   N3333       9       1      -7.651642        6.47006        3.75531        9.52301
  261   N2222      42       1      -7.623823        6.46879        4.56674        9.50066

Connections:

   id  Source  Target       ld
    1      46      47     0  0
    2      48      49     0  0
    3      50      51     0 -1
    4      52      53     0 -1
    5      54      55    -1  0
    6      56      57    -1  0
    7      58      59     0  0
    8      60      61     0  0
    9      62      63     0  0
   10      64      65     0  0
   11      66      67     0  0
   12      68      69     0  0
   13      70      71     0  0
   14      72      73     0  0
   15      74      75    -1  0
   16      76      77    -1  0
   17      78      79     0 -1
   18      80      81     0 -1
   19      82      83     0  0
   20      84      85     0  0
   21      86      87     0  0
   22      88      89     0  0
   23      90      91     0  0
   24      92      93     0  0
   25      94      95     0  0
   26      96      97     0  0
   27      98      99    -1  0
   28     100     101    -1  0
   29     102     103     0 -1
   30     104     105     0 -1
   31     106     107     0  0
   32     108     109     0  0
   33     110     111     0  0
   34     112     113     0  0
   35     114     115     0  0
   36     116     117     0  0
   37     118     119     0  0
   38     120     121     0  0
   39     122     123     0  0
   40     124     125     0  0
   41     126     127     0  0
   42     128     129     0  0
   43     130     131     0  0
   44     132     133     0  0
   45     134     135     0  0
   46     136     137     0  0
   47     138     139     0  0
   48     140     141     0  0
   49     142     143     0  0
   50     144     145     0  0
   51     146     147     0  0
   52     148     149     0  0
   53     150     151     0  0
   54     152     153     0  0
   55     154     155     0  0
   56     156     157     0  0
   57     158     159     0  0
   58     160     161     0  0
   59     162     163     0  0
   60     164     165     0  0
   61     166     167     0  0
   62     168     169     0  0
   63     170     171     0  0
   64     172     173     0  0
   65     174     175     0  0
   66     176     177     0  0
   67     178     179     0  0
   68     180     181     0  0
   69     182     183     0  0
   70     184     185     0  0
   71     186     187     0  0
   72     188     189     0  0
   73     190     191     0  0
   74     192     193     0  0
   75     194     195     0  0
   76     196     197     0  0
   77     198     199     0  0
   78     200     201     0  0
   79     202     203     0  0
   80     204     205     0  0
   81     206     207     0  0
   82     208     209     0  0
   83     210     211     0  0
   84     212     213     0  0
   85     214     215     0  0
   86     216     217     0  0
   87     218     219     0  0
   88     220     221     0  0
   89     222     223     0  0
   90     224     225     0  0
   91     226     227     0  0
   92     228     229     0  0
   93     230     231     0  0
   94     232     233     0  0
   95     234     235     0  0
   96     236     237     0  0
   97     238     239     0  0
   98     240     241     0  0
   99     242     243     0  0
  100     244     245     0  0
  101     246     247     0  0
  102     248     249     0  0
  103     250     251     0  0
  104     252     253     0  0
  105     254     255     0  0
  106     256     257     0  0
  107     258     259     0  0
  108     260     261     0  0

-------------
Binding Sites
-------------

Number of binding sites:                            45
Number of connections:                              54

Binding sites:

   id   Label   Aver.E(a.u.)  Stdev.E(a.u.)              x              y              z     Parents
    1   N3334      -7.651572       0.000000        0.92566        0.55493        9.52486     15(1)
    2   N3333      -7.651642       0.000000        2.31227        1.35481        9.52301     1(1)
    3   N3334      -7.651572       0.000000        2.31159        2.95543        9.52486     11(1)
    4   N3334      -7.651572       0.000000        3.69752        0.55493        9.52486     17(1)
    5   N3333      -7.651642       0.000000        3.69820        3.75531        9.52301     4(1)
    6   N3334      -7.651572       0.000000        3.69752        5.35593        9.52486     10(1)
    7   N3333      -7.651642       0.000000        5.08413        1.35481        9.52301     5(1)
    8   N3334      -7.651572       0.000000        5.08345        2.95543        9.52486     14(1)
    9   N3333      -7.651642       0.000000        5.08413        6.15581        9.52301     2(1)
   10   N3334      -7.651572       0.000000        6.46938        0.55493        9.52486     18(1)
   11   N3333      -7.651642       0.000000        6.47006        3.75531        9.52301     9(1)
   12   N3334      -7.651572       0.000000        6.46938        5.35593        9.52486     12(1)
   13   N3333      -7.651642       0.000000        7.85599        1.35481        9.52301     3(1)
   14   N3334      -7.651572       0.000000        7.85530        2.95543        9.52486     16(1)
   15   N3333      -7.651642       0.000000        7.85599        6.15581        9.52301     8(1)
   16   N3333      -7.651642       0.000000        9.24192        3.75531        9.52301     7(1)
   17   N3334      -7.651572       0.000000        9.24123        5.35593        9.52486     13(1)
   18   N3333      -7.651642       0.000000       10.62785        6.15581        9.52301     6(1)
   19   N2222      -7.623823       0.000000        1.60775        0.94799        9.50066     19(1)
   20   N2222      -7.623823       0.000000        2.31100        2.16624        9.50066     21(1)
   21   N2222      -7.623823       0.000000        3.01436        0.94799        9.50066     20(1)
   22   N2222      -7.623823       0.000000        2.99368        3.34849        9.50066     27(1)
   23   N2222      -7.623823       0.000000        3.69693        4.56674        9.50066     36(1)
   24   N2222      -7.623823       0.000000        4.37961        0.94799        9.50066     30(1)
   25   N2222      -7.623823       0.000000        4.40029        3.34849        9.50066     24(1)
   26   N2222      -7.623823       0.000000        4.37961        5.74899        9.50066     28(1)
   27   N2222      -7.623823       0.000000        5.08286        2.16624        9.50066     26(1)
   28   N2222      -7.623823       0.000000        5.08286        6.96724        9.50066     22(1)
   29   N2222      -7.623823       0.000000        5.78622        0.94799        9.50066     37(1)
   30   N2222      -7.623823       0.000000        5.76554        3.34849        9.50066     38(1)
   31   N2222      -7.623823       0.000000        5.78622        5.74899        9.50066     25(1)
   32   N2222      -7.623823       0.000000        6.46879        4.56674        9.50066     42(1)
   33   N2222      -7.623823       0.000000        7.15147        0.94799        9.50066     31(1)
   34   N2222      -7.623823       0.000000        7.17215        3.34849        9.50066     43(1)
   35   N2222      -7.623823       0.000000        7.15147        5.74899        9.50066     39(1)
   36   N2222      -7.623823       0.000000        7.85472        2.16624        9.50066     29(1)
   37   N2222      -7.623823       0.000000        7.85472        6.96724        9.50066     34(1)
   38   N2222      -7.623823       0.000000        8.55808        0.94799        9.50066     23(1)
   39   N2222      -7.623823       0.000000        8.53740        3.34849        9.50066     40(1)
   40   N2222      -7.623823       0.000000        8.55808        5.74899        9.50066     45(1)
   41   N2222      -7.623823       0.000000        9.24065        4.56674        9.50066     44(1)
   42   N2222      -7.623823       0.000000        9.94401        3.34849        9.50066     32(1)
   43   N2222      -7.623823       0.000000        9.92333        5.74899        9.50066     41(1)
   44   N2222      -7.623823       0.000000       10.62658        6.96724        9.50066     35(1)
   45   N2222      -7.623823       0.000000       11.32994        5.74899        9.50066     33(1)

Binding sites (fractional):

   id   Label   Aver.E(a.u.)  Stdev.E(a.u.)              x              y              z     Parents
    1   N3334      -7.651572       0.000000        0.07279        0.07706       17.99938     15(1)
    2   N3333      -7.651642       0.000000        0.18400        0.18813       17.99588     1(1)
    3   N3334      -7.651572       0.000000        0.07279        0.41039       17.99938     11(1)
    4   N3334      -7.651572       0.000000        0.40612        0.07706       17.99938     17(1)
    5   N3333      -7.651642       0.000000        0.18400        0.52146       17.99588     4(1)
    6   N3334      -7.651572       0.000000        0.07279        0.74372       17.99938     10(1)
    7   N3333      -7.651642       0.000000        0.51733        0.18813       17.99588     5(1)
    8   N3334      -7.651572       0.000000        0.40612        0.41039       17.99938     14(1)
    9   N3333      -7.651642       0.000000        0.18400        0.85480       17.99588     2(1)
   10   N3334      -7.651572       0.000000        0.73945        0.07706       17.99938     18(1)
   11   N3333      -7.651642       0.000000        0.51733        0.52146       17.99589     9(1)
   12   N3334      -7.651572       0.000000        0.40612        0.74372       17.99938     12(1)
   13   N3333      -7.651642       0.000000        0.85067        0.18813       17.99588     3(1)
   14   N3334      -7.651572       0.000000        0.73945        0.41039       17.99938     16(1)
   15   N3333      -7.651642       0.000000        0.51733        0.85480       17.99589     8(1)
   16   N3333      -7.651642       0.000000        0.85067        0.52146       17.99589     7(1)
   17   N3334      -7.651572       0.000000        0.73945        0.74372       17.99938     13(1)
   18   N3333      -7.651642       0.000000        0.85067        0.85480       17.99589     6(1)
   19   N2222      -7.623823       0.000000        0.12752        0.13164       17.95364     19(1)
   20   N2222      -7.623823       0.000000        0.12751        0.30080       17.95364     21(1)
   21   N2222      -7.623823       0.000000        0.29668        0.13164       17.95364     20(1)
   22   N2222      -7.623823       0.000000        0.12752        0.46497       17.95364     27(1)
   23   N2222      -7.623823       0.000000        0.12751        0.63414       17.95364     36(1)
   24   N2222      -7.623823       0.000000        0.46086        0.13164       17.95364     30(1)
   25   N2222      -7.623823       0.000000        0.29668        0.46497       17.95364     24(1)
   26   N2222      -7.623823       0.000000        0.12752        0.79830       17.95364     28(1)
   27   N2222      -7.623823       0.000000        0.46084        0.30080       17.95364     26(1)
   28   N2222      -7.623823       0.000000        0.12751        0.96747       17.95364     22(1)
   29   N2222      -7.623823       0.000000        0.63001        0.13164       17.95364     37(1)
   30   N2222      -7.623823       0.000000        0.46086        0.46497       17.95364     38(1)
   31   N2222      -7.623823       0.000000        0.29668        0.79830       17.95364     25(1)
   32   N2222      -7.623823       0.000000        0.46084        0.63414       17.95364     42(1)
   33   N2222      -7.623823       0.000000        0.79419        0.13164       17.95364     31(1)
   34   N2222      -7.623823       0.000000        0.63001        0.46497       17.95364     43(1)
   35   N2222      -7.623823       0.000000        0.46086        0.79830       17.95364     39(1)
   36   N2222      -7.623823       0.000000        0.79418        0.30080       17.95364     29(1)
   37   N2222      -7.623823       0.000000        0.46084        0.96747       17.95364     34(1)
   38   N2222      -7.623823       0.000000        0.96334        0.13164       17.95364     23(1)
   39   N2222      -7.623823       0.000000        0.79419        0.46497       17.95364     40(1)
   40   N2222      -7.623823       0.000000        0.63001        0.79830       17.95364     45(1)
   41   N2222      -7.623823       0.000000        0.79418        0.63414       17.95364     44(1)
   42   N2222      -7.623823       0.000000        0.96334        0.46497       17.95364     32(1)
   43   N2222      -7.623823       0.000000        0.79419        0.79830       17.95364     41(1)
   44   N2222      -7.623823       0.000000        0.79418        0.96747       17.95364     35(1)
   45   N2222      -7.623823       0.000000        0.96334        0.79830       17.95364     33(1)

Connections:

   id  Source  Target       ld
    1       1      19     0  0
    2       1      28     0 -1
    3       1      38    -1  0
    4       3      20     0  0
    5       4      21     0  0
    6       3      22     0  0
    7       4      24     0  0
    8       3      42    -1  0
    9       4      37     0 -1
   10       8      25     0  0
   11       8      27     0  0
   12       6      26     0  0
   13      10      33     0  0
   14       6      45    -1  0
   15      10      44     0 -1
   16       6      23     0  0
   17      12      31     0  0
   18      10      29     0  0
   19      14      36     0  0
   20       8      30     0  0
   21      12      35     0  0
   22      14      39     0  0
   23      12      32     0  0
   24      14      34     0  0
   25      17      43     0  0
   26      17      41     0  0
   27      17      40     0  0
   28       2      19     0  0
   29       2      21     0  0
   30       2      20     0  0
   31       9      28     0  0
   32      13      38     0  0
   33       9      26     0  0
   34      13      33     0  0
   35       9      31     0  0
   36      13      36     0  0
   37       5      22     0  0
   38       7      24     0  0
   39       5      25     0  0
   40       7      27     0  0
   41       5      23     0  0
   42       7      29     0  0
   43      18      45     0  0
   44      18      44     0  0
   45      16      42     0  0
   46      15      37     0  0
   47      18      43     0  0
   48      16      39     0  0
   49      15      35     0  0
   50      16      41     0  0
   51      15      40     0  0
   52      11      30     0  0
   53      11      34     0  0
   54      11      32     0  0

AMS application finished. Exiting.
NORMAL TERMINATION
 WARNING: Nr of shared arrays in use at the end:            6
 Names of the Shared Arrays that have not been deleted
 RxfConnTableType%bo
 RxfConnTableType%neighb
 RxfConnTableType%bonds
 RxfConnTableType%bo
 RxfConnTableType%neighb
 RxfConnTableType%bonds
     Total cpu time:     501.08
  Total system time:      11.39
 Total elapsed time:     516.37
