
 *******************************************************************************
 *                                                                             *
 *  --------------------------------                                           *
 *   Amsterdam Modeling Suite (AMS)              2022.203                      *
 *  --------------------------------                                           *
 *                                               r103971 2022-05-10            *
 *                                                                             *
 *                                                                             *
 *                              =================                              *
 *                              |               |                              *
 *                              |     A M S     |                              *
 *                              |               |                              *
 *                              =================                              *
 *                                                                             *
 *                                                                             *
 *   Online information and documentation:  https://www.scm.com/support/       *
 *   E-mail:  support@scm.com   info@scm.com                                   *
 *                                                                             *
 *   Scientific publications using AMS results must be properly referenced     *
 *   See the User Manuals (or the web site) for recommended citations          *
 *   The terms and conditions of the End User License Agreement apply to       *
 *   the use of AMS, https://www.scm.com/license-terms/                        *
 *                                                                             *
 **********************  x86_64_linux_intel / intelmpi  ************************
 
 Licensed to: Dr. Nestor Aguirre Castiblanco  / SCM / Amsterdam / NETHERLANDS 2022-01-24 09:33:25
 SCM User ID: u22021
  
 AMS 2022.203  RunTime: May11-2022 13:48:08  ShM Nodes: 1  Procs: 1

 AMS jobname: CO-Pt111
 AMS jobid  : 301975619

 Start   directory: /home/aguirre/Develop/pyzacros/test_RKFLoader/CO-Pt111/
 Results directory: /home/aguirre/Develop/pyzacros/test_RKFLoader/CO-Pt111/
 Scratch directory: /scratch/aguirre/amstmp_CO-Pt111_kid0.301975619/

 RNG seed: -1443042891 -1732818754 1612666499 -1416677432 495545957 942225321 1154522928 -54512993
 MPI rank    0: Number of processors available to this process:      8
 MPI rank    0: Default max number of OpenMP threads:                8
 MPI rank    0: The OMP_NUM_THREADS environment variable is not set!
 MPI rank    0: Restrict max number of OpenMP threads to:            4
Force field identifier: Reactive MD-force field: C/H/O/N/S/F/Pt/
 Triple bond stabilization enabled for C-O only
 Non-bonding interaction type[nonbontype]:
 No inner wall, shielding
 Warning:changed vval3 to valf for X 

Reference geometry:
   Note: All states are going to be aligned with this reference
 
--------
Geometry
--------
Formula: Pt36
Atoms
  Index Symbol   x (angstrom)   y (angstrom)   z (angstrom)
      1     Pt     9.24070201     6.95527267     1.31036083       region=surface
      2     Pt     9.24070201     2.15427277     1.31036083       region=surface
      3     Pt    10.62663130     4.55477272     1.31036083       region=surface
      4     Pt    12.01256059     6.95527267     1.31036083       region=surface
      5     Pt     3.69698485     2.15427277     8.10000000       region=surface
      6     Pt     5.08291414     4.55477272     8.10000000       region=surface
      7     Pt     6.46884343     6.95527267     8.10000000       region=surface
      8     Pt     6.46884343     2.15427277     8.10000000       region=surface
      9     Pt     7.85477272     4.55477272     8.10000000       region=surface
     10     Pt     9.24070201     6.95527267     8.10000000       region=surface
     11     Pt     9.24070201     2.15427277     8.10000000       region=surface
     12     Pt    10.62663130     4.55477272     8.10000000       region=surface
     13     Pt    12.01256059     6.95527267     8.10000000       region=surface
     14     Pt     5.08291414     2.95443942     5.83678694       region=surface
     15     Pt     6.46884343     5.35493937     5.83678694       region=surface
     16     Pt     7.85477272     7.75543932     5.83678694       region=surface
     17     Pt     7.85477272     2.95443942     5.83678694       region=surface
     18     Pt     9.24070201     5.35493937     5.83678694       region=surface
     19     Pt    10.62663130     7.75543932     5.83678694       region=surface
     20     Pt    10.62663130     2.95443942     5.83678694       region=surface
     21     Pt    12.01256059     5.35493937     5.83678694       region=surface
     22     Pt    13.39848987     7.75543932     5.83678694       region=surface
     23     Pt     2.31105556     1.35410612     3.57357389       region=surface
     24     Pt     3.69698485     3.75460607     3.57357389       region=surface
     25     Pt     5.08291414     6.15510602     3.57357389       region=surface
     26     Pt     5.08291414     1.35410612     3.57357389       region=surface
     27     Pt     6.46884343     3.75460607     3.57357389       region=surface
     28     Pt     7.85477272     6.15510602     3.57357389       region=surface
     29     Pt     7.85477272     1.35410612     3.57357389       region=surface
     30     Pt     9.24070201     3.75460607     3.57357389       region=surface
     31     Pt    10.62663130     6.15510602     3.57357389       region=surface
     32     Pt     3.69698485     2.15427277     1.31036083       region=surface
     33     Pt     5.08291414     4.55477272     1.31036083       region=surface
     34     Pt     6.46884343     6.95527267     1.31036083       region=surface
     35     Pt     6.46884343     2.15427277     1.31036083       region=surface
     36     Pt     7.85477272     4.55477272     1.31036083       region=surface
 
Lattice vectors (angstrom)
      1     8.31557575     0.00000000     0.00000000
      2     4.15778787     7.20149984     0.00000000
 
Unit cell area (angstrom^2)        59.88462
 
Total System Charge             0.00000
 

Aligning All Database With the Reference Adsorbent
--------------------------------------------------
   Alignment successful


Reference geometry:
   Note: All states are going to be aligned with this reference
 
--------
Geometry
--------
Formula: Pt36
Atoms
  Index Symbol   x (angstrom)   y (angstrom)   z (angstrom)
      1     Pt     9.24070201     6.95527267     1.31036083       region=surface
      2     Pt     9.24070201     2.15427277     1.31036083       region=surface
      3     Pt    10.62663130     4.55477272     1.31036083       region=surface
      4     Pt    12.01256059     6.95527267     1.31036083       region=surface
      5     Pt     3.69698485     2.15427277     8.10000000       region=surface
      6     Pt     5.08291414     4.55477272     8.10000000       region=surface
      7     Pt     6.46884343     6.95527267     8.10000000       region=surface
      8     Pt     6.46884343     2.15427277     8.10000000       region=surface
      9     Pt     7.85477272     4.55477272     8.10000000       region=surface
     10     Pt     9.24070201     6.95527267     8.10000000       region=surface
     11     Pt     9.24070201     2.15427277     8.10000000       region=surface
     12     Pt    10.62663130     4.55477272     8.10000000       region=surface
     13     Pt    12.01256059     6.95527267     8.10000000       region=surface
     14     Pt     5.08291414     2.95443942     5.83678694       region=surface
     15     Pt     6.46884343     5.35493937     5.83678694       region=surface
     16     Pt     7.85477272     7.75543932     5.83678694       region=surface
     17     Pt     7.85477272     2.95443942     5.83678694       region=surface
     18     Pt     9.24070201     5.35493937     5.83678694       region=surface
     19     Pt    10.62663130     7.75543932     5.83678694       region=surface
     20     Pt    10.62663130     2.95443942     5.83678694       region=surface
     21     Pt    12.01256059     5.35493937     5.83678694       region=surface
     22     Pt    13.39848987     7.75543932     5.83678694       region=surface
     23     Pt     2.31105556     1.35410612     3.57357389       region=surface
     24     Pt     3.69698485     3.75460607     3.57357389       region=surface
     25     Pt     5.08291414     6.15510602     3.57357389       region=surface
     26     Pt     5.08291414     1.35410612     3.57357389       region=surface
     27     Pt     6.46884343     3.75460607     3.57357389       region=surface
     28     Pt     7.85477272     6.15510602     3.57357389       region=surface
     29     Pt     7.85477272     1.35410612     3.57357389       region=surface
     30     Pt     9.24070201     3.75460607     3.57357389       region=surface
     31     Pt    10.62663130     6.15510602     3.57357389       region=surface
     32     Pt     3.69698485     2.15427277     1.31036083       region=surface
     33     Pt     5.08291414     4.55477272     1.31036083       region=surface
     34     Pt     6.46884343     6.95527267     1.31036083       region=surface
     35     Pt     6.46884343     2.15427277     1.31036083       region=surface
     36     Pt     7.85477272     4.55477272     1.31036083       region=surface
 
Lattice vectors (angstrom)
      1     8.31557575     0.00000000     0.00000000
      2     4.15778787     7.20149984     0.00000000
 
Unit cell area (angstrom^2)        59.88462
 
Total System Charge             0.00000
 

---------------------------
PES Exploration Parameters*
---------------------------

*) All parameters are ignored except:
   
Temperature                                  300.00000
GenerateSymmetryImages                               F
   
   Prefactor
   ---------
   Rate                                           htst
   
      Optimizer
      ---------
      ConvergedForce                           0.00500
   
   StructureComparison
   -------------------
   DistanceDifference                          0.20000
   NeighborCutoff                              2.40000
   CheckRotation                                     F
   IndistinguishableAtoms                            T
   CheckSymmetry                                     F
   EnergyDifference                            0.05000
   RemoveTranslation                                 F
   
   
   StatesAlignment
   ---------------
   ReferenceRegion                             surface
   RemoveUnaligned                                   F
   DistanceDifference                          0.20000

   BindingSites
   ------------
   Calculate                                         T
   DistanceDifference                          0.50000
   NeighborCutoff                              3.80000

       **************************************
       * Loading Energy Landscape to refine *
       **************************************

Restoring energy landscape from: /home/aguirre/Develop/pyzacros/test_RKFLoader/CO-Pt111/../CO_ads-Pt111

-------------------------
Checking Duplicate States
-------------------------

      Id         Energy      DB
   ----------------------------
   Local minima
       1      -7.651642     New
       2      -7.651572     New
       3      -7.623821     New
   Transition states
       4      -7.622547   NewTS 2 <--> 3
       5      -7.622431   NewTS 1 <--> 3

> Sorting Energy Landscape by Energy ... DONE


Restoring fragments energy landscape from: /home/aguirre/Develop/pyzacros/test_RKFLoader/CO-Pt111/../CO_ads-Pt111

--------------------------
Generating Symmetry Images
--------------------------

ReferenceRegion                                surface
NSymmetryOperators                                 108

     ParentId  Operator        Id         Energy      DB
   --------------------------------------------------------
            1         1         1      -7.651642     Old=>1
            1         2         2      -7.651642     New=>6
            1         3         3      -7.651642     New=>7
            1         4         4      -7.651642     New=>8
            1         5         5      -7.651642     New=>9
            1         6         6      -7.651642     New=>10
            1         7         7      -7.651642     New=>11
            1         8         8      -7.651642     New=>12
            1         9         9      -7.651642     New=>13
            1        10        10      -7.651642     Old=>11
            1        11        11      -7.651642     Old=>12
            1        12        12      -7.651642     Old=>13
            1        13        13      -7.651642     Old=>1
            1        14        14      -7.651642     Old=>6
            1        15        15      -7.651642     Old=>7
            1        16        16      -7.651642     Old=>8
            1        17        17      -7.651642     Old=>9
            1        18        18      -7.651642     Old=>10
            1        19        19      -7.651642     Old=>9
            1        20        20      -7.651642     Old=>13
            1        21        21      -7.651642     Old=>1
            1        22        22      -7.651642     Old=>12
            1        23        23      -7.651642     Old=>7
            1        24        24      -7.651642     Old=>8
            1        25        25      -7.651642     Old=>6
            1        26        26      -7.651642     Old=>10
            1        27        27      -7.651642     Old=>11
            1        28        28      -7.651642     Old=>11
            1        29        29      -7.651642     Old=>12
            1        30        30      -7.651642     Old=>13
            1        31        31      -7.651642     Old=>1
            1        32        32      -7.651642     Old=>6
            1        33        33      -7.651642     Old=>7
            1        34        34      -7.651642     Old=>8
            1        35        35      -7.651642     Old=>9
            1        36        36      -7.651642     Old=>10
            1        37        37      -7.651642     Old=>1
            1        38        38      -7.651642     Old=>6
            1        39        39      -7.651642     Old=>7
            1        40        40      -7.651642     Old=>8
            1        41        41      -7.651642     Old=>9
            1        42        42      -7.651642     Old=>10
            1        43        43      -7.651642     Old=>11
            1        44        44      -7.651642     Old=>12
            1        45        45      -7.651642     Old=>13
            1        46        46      -7.651642     Old=>9
            1        47        47      -7.651642     Old=>13
            1        48        48      -7.651642     Old=>1
            1        49        49      -7.651642     Old=>12
            1        50        50      -7.651642     Old=>7
            1        51        51      -7.651642     Old=>8
            1        52        52      -7.651642     Old=>6
            1        53        53      -7.651642     Old=>10
            1        54        54      -7.651642     Old=>11
            1        55        55                IGNORED (+z -> -z)
            1        55        56                IGNORED (+z -> -z)
            1        55        57                IGNORED (+z -> -z)
            1        55        58                IGNORED (+z -> -z)
            1        55        59                IGNORED (+z -> -z)
            1        55        60                IGNORED (+z -> -z)
            1        55        61                IGNORED (+z -> -z)
            1        55        62                IGNORED (+z -> -z)
            1        55        63                IGNORED (+z -> -z)
            1        55        64                IGNORED (+z -> -z)
            1        55        65                IGNORED (+z -> -z)
            1        55        66                IGNORED (+z -> -z)
            1        55        67                IGNORED (+z -> -z)
            1        55        68                IGNORED (+z -> -z)
            1        55        69                IGNORED (+z -> -z)
            1        55        70                IGNORED (+z -> -z)
            1        55        71                IGNORED (+z -> -z)
            1        55        72                IGNORED (+z -> -z)
            1        55        73                IGNORED (+z -> -z)
            1        55        74                IGNORED (+z -> -z)
            1        55        75                IGNORED (+z -> -z)
            1        55        76                IGNORED (+z -> -z)
            1        55        77                IGNORED (+z -> -z)
            1        55        78                IGNORED (+z -> -z)
            1        55        79                IGNORED (+z -> -z)
            1        55        80                IGNORED (+z -> -z)
            1        55        81                IGNORED (+z -> -z)
            1        55        82                IGNORED (+z -> -z)
            1        55        83                IGNORED (+z -> -z)
            1        55        84                IGNORED (+z -> -z)
            1        55        85                IGNORED (+z -> -z)
            1        55        86                IGNORED (+z -> -z)
            1        55        87                IGNORED (+z -> -z)
            1        55        88                IGNORED (+z -> -z)
            1        55        89                IGNORED (+z -> -z)
            1        55        90                IGNORED (+z -> -z)
            1        55        91                IGNORED (+z -> -z)
            1        55        92                IGNORED (+z -> -z)
            1        55        93                IGNORED (+z -> -z)
            1        55        94                IGNORED (+z -> -z)
            1        55        95                IGNORED (+z -> -z)
            1        55        96                IGNORED (+z -> -z)
            1        55        97                IGNORED (+z -> -z)
            1        55        98                IGNORED (+z -> -z)
            1        55        99                IGNORED (+z -> -z)
            1        55       100                IGNORED (+z -> -z)
            1        55       101                IGNORED (+z -> -z)
            1        55       102                IGNORED (+z -> -z)
            1        55       103                IGNORED (+z -> -z)
            1        55       104                IGNORED (+z -> -z)
            1        55       105                IGNORED (+z -> -z)
            1        55       106                IGNORED (+z -> -z)
            1        55       107                IGNORED (+z -> -z)
            1        55       108                IGNORED (+z -> -z)
            2        55         1      -7.651572     Old=>2
            2        56         2      -7.651572     New=>14
            2        57         3      -7.651572     New=>15
            2        58         4      -7.651572     New=>16
            2        59         5      -7.651572     New=>17
            2        60         6      -7.651572     New=>18
            2        61         7      -7.651572     New=>19
            2        62         8      -7.651572     New=>20
            2        63         9      -7.651572     New=>21
            2        64        10      -7.651572     Old=>2
            2        65        11      -7.651572     Old=>14
            2        66        12      -7.651572     Old=>15
            2        67        13      -7.651572     Old=>16
            2        68        14      -7.651572     Old=>17
            2        69        15      -7.651572     Old=>18
            2        70        16      -7.651572     Old=>19
            2        71        17      -7.651572     Old=>20
            2        72        18      -7.651572     Old=>21
            2        73        19      -7.651572     Old=>17
            2        74        20      -7.651572     Old=>21
            2        75        21      -7.651572     Old=>2
            2        76        22      -7.651572     Old=>20
            2        77        23      -7.651572     Old=>15
            2        78        24      -7.651572     Old=>16
            2        79        25      -7.651572     Old=>14
            2        80        26      -7.651572     Old=>18
            2        81        27      -7.651572     Old=>19
            2        82        28      -7.651572     Old=>17
            2        83        29      -7.651572     Old=>21
            2        84        30      -7.651572     Old=>2
            2        85        31      -7.651572     Old=>20
            2        86        32      -7.651572     Old=>15
            2        87        33      -7.651572     Old=>16
            2        88        34      -7.651572     Old=>14
            2        89        35      -7.651572     Old=>18
            2        90        36      -7.651572     Old=>19
            2        91        37      -7.651572     Old=>20
            2        92        38      -7.651572     Old=>15
            2        93        39      -7.651572     Old=>16
            2        94        40      -7.651572     Old=>14
            2        95        41      -7.651572     Old=>18
            2        96        42      -7.651572     Old=>19
            2        97        43      -7.651572     Old=>17
            2        98        44      -7.651572     Old=>21
            2        99        45      -7.651572     Old=>2
            2       100        46      -7.651572     Old=>20
            2       101        47      -7.651572     Old=>15
            2       102        48      -7.651572     Old=>16
            2       103        49      -7.651572     Old=>14
            2       104        50      -7.651572     Old=>18
            2       105        51      -7.651572     Old=>19
            2       106        52      -7.651572     Old=>17
            2       107        53      -7.651572     Old=>21
            2       108        54      -7.651572     Old=>2
            2       109        55                IGNORED (+z -> -z)
            2       109        56                IGNORED (+z -> -z)
            2       109        57                IGNORED (+z -> -z)
            2       109        58                IGNORED (+z -> -z)
            2       109        59                IGNORED (+z -> -z)
            2       109        60                IGNORED (+z -> -z)
            2       109        61                IGNORED (+z -> -z)
            2       109        62                IGNORED (+z -> -z)
            2       109        63                IGNORED (+z -> -z)
            2       109        64                IGNORED (+z -> -z)
            2       109        65                IGNORED (+z -> -z)
            2       109        66                IGNORED (+z -> -z)
            2       109        67                IGNORED (+z -> -z)
            2       109        68                IGNORED (+z -> -z)
            2       109        69                IGNORED (+z -> -z)
            2       109        70                IGNORED (+z -> -z)
            2       109        71                IGNORED (+z -> -z)
            2       109        72                IGNORED (+z -> -z)
            2       109        73                IGNORED (+z -> -z)
            2       109        74                IGNORED (+z -> -z)
            2       109        75                IGNORED (+z -> -z)
            2       109        76                IGNORED (+z -> -z)
            2       109        77                IGNORED (+z -> -z)
            2       109        78                IGNORED (+z -> -z)
            2       109        79                IGNORED (+z -> -z)
            2       109        80                IGNORED (+z -> -z)
            2       109        81                IGNORED (+z -> -z)
            2       109        82                IGNORED (+z -> -z)
            2       109        83                IGNORED (+z -> -z)
            2       109        84                IGNORED (+z -> -z)
            2       109        85                IGNORED (+z -> -z)
            2       109        86                IGNORED (+z -> -z)
            2       109        87                IGNORED (+z -> -z)
            2       109        88                IGNORED (+z -> -z)
            2       109        89                IGNORED (+z -> -z)
            2       109        90                IGNORED (+z -> -z)
            2       109        91                IGNORED (+z -> -z)
            2       109        92                IGNORED (+z -> -z)
            2       109        93                IGNORED (+z -> -z)
            2       109        94                IGNORED (+z -> -z)
            2       109        95                IGNORED (+z -> -z)
            2       109        96                IGNORED (+z -> -z)
            2       109        97                IGNORED (+z -> -z)
            2       109        98                IGNORED (+z -> -z)
            2       109        99                IGNORED (+z -> -z)
            2       109       100                IGNORED (+z -> -z)
            2       109       101                IGNORED (+z -> -z)
            2       109       102                IGNORED (+z -> -z)
            2       109       103                IGNORED (+z -> -z)
            2       109       104                IGNORED (+z -> -z)
            2       109       105                IGNORED (+z -> -z)
            2       109       106                IGNORED (+z -> -z)
            2       109       107                IGNORED (+z -> -z)
            2       109       108                IGNORED (+z -> -z)
            3       109         1      -7.623821     Old=>3
            3       110         2      -7.623821     New=>22
            3       111         3      -7.623821     New=>23
            3       112         4      -7.623821     New=>24
            3       113         5      -7.623821     New=>25
            3       114         6      -7.623821     New=>26
            3       115         7      -7.623821     New=>27
            3       116         8      -7.623821     New=>28
            3       117         9      -7.623821     New=>29
            3       118        10      -7.623821     New=>30
            3       119        11      -7.623821     New=>31
            3       120        12      -7.623821     New=>32
            3       121        13      -7.623821     New=>33
            3       122        14      -7.623821     New=>34
            3       123        15      -7.623821     New=>35
            3       124        16      -7.623821     New=>36
            3       125        17      -7.623821     New=>37
            3       126        18      -7.623821     New=>38
            3       127        19      -7.623821     Old=>25
            3       128        20      -7.623821     Old=>29
            3       129        21      -7.623821     Old=>3
            3       130        22      -7.623821     Old=>28
            3       131        23      -7.623821     Old=>23
            3       132        24      -7.623821     Old=>24
            3       133        25      -7.623821     Old=>22
            3       134        26      -7.623821     Old=>26
            3       135        27      -7.623821     Old=>27
            3       136        28      -7.623821     New=>39
            3       137        29      -7.623821     New=>40
            3       138        30      -7.623821     New=>41
            3       139        31      -7.623821     New=>42
            3       140        32      -7.623821     New=>43
            3       141        33      -7.623821     New=>44
            3       142        34      -7.623821     New=>45
            3       143        35      -7.623821     New=>46
            3       144        36      -7.623821     New=>47
            3       145        37      -7.623821     Old=>42
            3       146        38      -7.623821     Old=>43
            3       147        39      -7.623821     Old=>44
            3       148        40      -7.623821     Old=>45
            3       149        41      -7.623821     Old=>46
            3       150        42      -7.623821     Old=>47
            3       151        43      -7.623821     Old=>39
            3       152        44      -7.623821     Old=>40
            3       153        45      -7.623821     Old=>41
            3       154        46      -7.623821     Old=>37
            3       155        47      -7.623821     Old=>32
            3       156        48      -7.623821     Old=>33
            3       157        49      -7.623821     Old=>31
            3       158        50      -7.623821     Old=>35
            3       159        51      -7.623821     Old=>36
            3       160        52      -7.623821     Old=>34
            3       161        53      -7.623821     Old=>38
            3       162        54      -7.623821     Old=>30
            3       163        55                IGNORED (+z -> -z)
            3       163        56                IGNORED (+z -> -z)
            3       163        57                IGNORED (+z -> -z)
            3       163        58                IGNORED (+z -> -z)
            3       163        59                IGNORED (+z -> -z)
            3       163        60                IGNORED (+z -> -z)
            3       163        61                IGNORED (+z -> -z)
            3       163        62                IGNORED (+z -> -z)
            3       163        63                IGNORED (+z -> -z)
            3       163        64                IGNORED (+z -> -z)
            3       163        65                IGNORED (+z -> -z)
            3       163        66                IGNORED (+z -> -z)
            3       163        67                IGNORED (+z -> -z)
            3       163        68                IGNORED (+z -> -z)
            3       163        69                IGNORED (+z -> -z)
            3       163        70                IGNORED (+z -> -z)
            3       163        71                IGNORED (+z -> -z)
            3       163        72                IGNORED (+z -> -z)
            3       163        73                IGNORED (+z -> -z)
            3       163        74                IGNORED (+z -> -z)
            3       163        75                IGNORED (+z -> -z)
            3       163        76                IGNORED (+z -> -z)
            3       163        77                IGNORED (+z -> -z)
            3       163        78                IGNORED (+z -> -z)
            3       163        79                IGNORED (+z -> -z)
            3       163        80                IGNORED (+z -> -z)
            3       163        81                IGNORED (+z -> -z)
            3       163        82                IGNORED (+z -> -z)
            3       163        83                IGNORED (+z -> -z)
            3       163        84                IGNORED (+z -> -z)
            3       163        85                IGNORED (+z -> -z)
            3       163        86                IGNORED (+z -> -z)
            3       163        87                IGNORED (+z -> -z)
            3       163        88                IGNORED (+z -> -z)
            3       163        89                IGNORED (+z -> -z)
            3       163        90                IGNORED (+z -> -z)
            3       163        91                IGNORED (+z -> -z)
            3       163        92                IGNORED (+z -> -z)
            3       163        93                IGNORED (+z -> -z)
            3       163        94                IGNORED (+z -> -z)
            3       163        95                IGNORED (+z -> -z)
            3       163        96                IGNORED (+z -> -z)
            3       163        97                IGNORED (+z -> -z)
            3       163        98                IGNORED (+z -> -z)
            3       163        99                IGNORED (+z -> -z)
            3       163       100                IGNORED (+z -> -z)
            3       163       101                IGNORED (+z -> -z)
            3       163       102                IGNORED (+z -> -z)
            3       163       103                IGNORED (+z -> -z)
            3       163       104                IGNORED (+z -> -z)
            3       163       105                IGNORED (+z -> -z)
            3       163       106                IGNORED (+z -> -z)
            3       163       107                IGNORED (+z -> -z)
            3       163       108                IGNORED (+z -> -z)
            4       163         1      -7.651572     Old=>2
            4       164         1      -7.623821     Old=>3
            4       165         1      -7.622547   OldTS=>4
            4       166         2      -7.651572     Old=>14
            4       167         2      -7.623821     Old=>22
            4       168         2      -7.622547   NewTS=>48
            4       169         3      -7.651572     Old=>15
            4       170         3      -7.623821     Old=>23
            4       171         3      -7.622547   NewTS=>49
            4       172         4      -7.651572     Old=>16
            4       173         4      -7.623821     Old=>24
            4       174         4      -7.622547   NewTS=>50
            4       175         5      -7.651572     Old=>17
            4       176         5      -7.623821     Old=>25
            4       177         5      -7.622547   NewTS=>51
            4       178         6      -7.651572     Old=>18
            4       179         6      -7.623821     Old=>26
            4       180         6      -7.622547   NewTS=>52
            4       181         7      -7.651572     Old=>19
            4       182         7      -7.623821     Old=>27
            4       183         7      -7.622547   NewTS=>53
            4       184         8      -7.651572     Old=>20
            4       185         8      -7.623821     Old=>28
            4       186         8      -7.622547   NewTS=>54
            4       187         9      -7.651572     Old=>21
            4       188         9      -7.623821     Old=>29
            4       189         9      -7.622547   NewTS=>55
            4       190        10      -7.651572     Old=>2
            4       191        10      -7.623821     Old=>30
            4       192        10      -7.622547   NewTS=>56
            4       193        11      -7.651572     Old=>14
            4       194        11      -7.623821     Old=>31
            4       195        11      -7.622547   NewTS=>57
            4       196        12      -7.651572     Old=>15
            4       197        12      -7.623821     Old=>32
            4       198        12      -7.622547   NewTS=>58
            4       199        13      -7.651572     Old=>16
            4       200        13      -7.623821     Old=>33
            4       201        13      -7.622547   NewTS=>59
            4       202        14      -7.651572     Old=>17
            4       203        14      -7.623821     Old=>34
            4       204        14      -7.622547   NewTS=>60
            4       205        15      -7.651572     Old=>18
            4       206        15      -7.623821     Old=>35
            4       207        15      -7.622547   NewTS=>61
            4       208        16      -7.651572     Old=>19
            4       209        16      -7.623821     Old=>36
            4       210        16      -7.622547   NewTS=>62
            4       211        17      -7.651572     Old=>20
            4       212        17      -7.623821     Old=>37
            4       213        17      -7.622547   NewTS=>63
            4       214        18      -7.651572     Old=>21
            4       215        18      -7.623821     Old=>38
            4       216        18      -7.622547   NewTS=>64
            4       217        19      -7.651572     Old=>17
            4       218        19      -7.623821     Old=>25
            4       219        19      -7.622547   OldTS=>51
            4       220        20      -7.651572     Old=>21
            4       221        20      -7.623821     Old=>29
            4       222        20      -7.622547   OldTS=>55
            4       223        21      -7.651572     Old=>2
            4       224        21      -7.623821     Old=>3
            4       225        21      -7.622547   OldTS=>4
            4       226        22      -7.651572     Old=>20
            4       227        22      -7.623821     Old=>28
            4       228        22      -7.622547   OldTS=>54
            4       229        23      -7.651572     Old=>15
            4       230        23      -7.623821     Old=>23
            4       231        23      -7.622547   OldTS=>49
            4       232        24      -7.651572     Old=>16
            4       233        24      -7.623821     Old=>24
            4       234        24      -7.622547   OldTS=>50
            4       235        25      -7.651572     Old=>14
            4       236        25      -7.623821     Old=>22
            4       237        25      -7.622547   OldTS=>48
            4       238        26      -7.651572     Old=>18
            4       239        26      -7.623821     Old=>26
            4       240        26      -7.622547   OldTS=>52
            4       241        27      -7.651572     Old=>19
            4       242        27      -7.623821     Old=>27
            4       243        27      -7.622547   OldTS=>53
            4       244        28      -7.651572     Old=>17
            4       245        28      -7.623821     Old=>39
            4       246        28      -7.622547   NewTS=>65
            4       247        29      -7.651572     Old=>21
            4       248        29      -7.623821     Old=>40
            4       249        29      -7.622547   NewTS=>66
            4       250        30      -7.651572     Old=>2
            4       251        30      -7.623821     Old=>41
            4       252        30      -7.622547   NewTS=>67
            4       253        31      -7.651572     Old=>20
            4       254        31      -7.623821     Old=>42
            4       255        31      -7.622547   NewTS=>68
            4       256        32      -7.651572     Old=>15
            4       257        32      -7.623821     Old=>43
            4       258        32      -7.622547   NewTS=>69
            4       259        33      -7.651572     Old=>16
            4       260        33      -7.623821     Old=>44
            4       261        33      -7.622547   NewTS=>70
            4       262        34      -7.651572     Old=>14
            4       263        34      -7.623821     Old=>45
            4       264        34      -7.622547   NewTS=>71
            4       265        35      -7.651572     Old=>18
            4       266        35      -7.623821     Old=>46
            4       267        35      -7.622547   NewTS=>72
            4       268        36      -7.651572     Old=>19
            4       269        36      -7.623821     Old=>47
            4       270        36      -7.622547   NewTS=>73
            4       271        37      -7.651572     Old=>20
            4       272        37      -7.623821     Old=>42
            4       273        37      -7.622547   OldTS=>68
            4       274        38      -7.651572     Old=>15
            4       275        38      -7.623821     Old=>43
            4       276        38      -7.622547   OldTS=>69
            4       277        39      -7.651572     Old=>16
            4       278        39      -7.623821     Old=>44
            4       279        39      -7.622547   OldTS=>70
            4       280        40      -7.651572     Old=>14
            4       281        40      -7.623821     Old=>45
            4       282        40      -7.622547   OldTS=>71
            4       283        41      -7.651572     Old=>18
            4       284        41      -7.623821     Old=>46
            4       285        41      -7.622547   OldTS=>72
            4       286        42      -7.651572     Old=>19
            4       287        42      -7.623821     Old=>47
            4       288        42      -7.622547   OldTS=>73
            4       289        43      -7.651572     Old=>17
            4       290        43      -7.623821     Old=>39
            4       291        43      -7.622547   OldTS=>65
            4       292        44      -7.651572     Old=>21
            4       293        44      -7.623821     Old=>40
            4       294        44      -7.622547   OldTS=>66
            4       295        45      -7.651572     Old=>2
            4       296        45      -7.623821     Old=>41
            4       297        45      -7.622547   OldTS=>67
            4       298        46      -7.651572     Old=>20
            4       299        46      -7.623821     Old=>37
            4       300        46      -7.622547   OldTS=>63
            4       301        47      -7.651572     Old=>15
            4       302        47      -7.623821     Old=>32
            4       303        47      -7.622547   OldTS=>58
            4       304        48      -7.651572     Old=>16
            4       305        48      -7.623821     Old=>33
            4       306        48      -7.622547   OldTS=>59
            4       307        49      -7.651572     Old=>14
            4       308        49      -7.623821     Old=>31
            4       309        49      -7.622547   OldTS=>57
            4       310        50      -7.651572     Old=>18
            4       311        50      -7.623821     Old=>35
            4       312        50      -7.622547   OldTS=>61
            4       313        51      -7.651572     Old=>19
            4       314        51      -7.623821     Old=>36
            4       315        51      -7.622547   OldTS=>62
            4       316        52      -7.651572     Old=>17
            4       317        52      -7.623821     Old=>34
            4       318        52      -7.622547   OldTS=>60
            4       319        53      -7.651572     Old=>21
            4       320        53      -7.623821     Old=>38
            4       321        53      -7.622547   OldTS=>64
            4       322        54      -7.651572     Old=>2
            4       323        54      -7.623821     Old=>30
            4       324        54      -7.622547   OldTS=>56
            4       325        55                IGNORED (+z -> -z)
            4       325        56                IGNORED (+z -> -z)
            4       325        57                IGNORED (+z -> -z)
            4       325        58                IGNORED (+z -> -z)
            4       325        59                IGNORED (+z -> -z)
            4       325        60                IGNORED (+z -> -z)
            4       325        61                IGNORED (+z -> -z)
            4       325        62                IGNORED (+z -> -z)
            4       325        63                IGNORED (+z -> -z)
            4       325        64                IGNORED (+z -> -z)
            4       325        65                IGNORED (+z -> -z)
            4       325        66                IGNORED (+z -> -z)
            4       325        67                IGNORED (+z -> -z)
            4       325        68                IGNORED (+z -> -z)
            4       325        69                IGNORED (+z -> -z)
            4       325        70                IGNORED (+z -> -z)
            4       325        71                IGNORED (+z -> -z)
            4       325        72                IGNORED (+z -> -z)
            4       325        73                IGNORED (+z -> -z)
            4       325        74                IGNORED (+z -> -z)
            4       325        75                IGNORED (+z -> -z)
            4       325        76                IGNORED (+z -> -z)
            4       325        77                IGNORED (+z -> -z)
            4       325        78                IGNORED (+z -> -z)
            4       325        79                IGNORED (+z -> -z)
            4       325        80                IGNORED (+z -> -z)
            4       325        81                IGNORED (+z -> -z)
            4       325        82                IGNORED (+z -> -z)
            4       325        83                IGNORED (+z -> -z)
            4       325        84                IGNORED (+z -> -z)
            4       325        85                IGNORED (+z -> -z)
            4       325        86                IGNORED (+z -> -z)
            4       325        87                IGNORED (+z -> -z)
            4       325        88                IGNORED (+z -> -z)
            4       325        89                IGNORED (+z -> -z)
            4       325        90                IGNORED (+z -> -z)
            4       325        91                IGNORED (+z -> -z)
            4       325        92                IGNORED (+z -> -z)
            4       325        93                IGNORED (+z -> -z)
            4       325        94                IGNORED (+z -> -z)
            4       325        95                IGNORED (+z -> -z)
            4       325        96                IGNORED (+z -> -z)
            4       325        97                IGNORED (+z -> -z)
            4       325        98                IGNORED (+z -> -z)
            4       325        99                IGNORED (+z -> -z)
            4       325       100                IGNORED (+z -> -z)
            4       325       101                IGNORED (+z -> -z)
            4       325       102                IGNORED (+z -> -z)
            4       325       103                IGNORED (+z -> -z)
            4       325       104                IGNORED (+z -> -z)
            4       325       105                IGNORED (+z -> -z)
            4       325       106                IGNORED (+z -> -z)
            4       325       107                IGNORED (+z -> -z)
            4       325       108                IGNORED (+z -> -z)
            5       325         1      -7.651642     Old=>1
            5       326         1      -7.623821     Old=>3
            5       327         1      -7.622431   OldTS=>5
            5       328         2      -7.651642     Old=>6
            5       329         2      -7.623821     Old=>22
            5       330         2      -7.622431   NewTS=>74
            5       331         3      -7.651642     Old=>7
            5       332         3      -7.623821     Old=>23
            5       333         3      -7.622431   NewTS=>75
            5       334         4      -7.651642     Old=>8
            5       335         4      -7.623821     Old=>24
            5       336         4      -7.622431   NewTS=>76
            5       337         5      -7.651642     Old=>9
            5       338         5      -7.623821     Old=>25
            5       339         5      -7.622431   NewTS=>77
            5       340         6      -7.651642     Old=>10
            5       341         6      -7.623821     Old=>26
            5       342         6      -7.622431   NewTS=>78
            5       343         7      -7.651642     Old=>11
            5       344         7      -7.623821     Old=>27
            5       345         7      -7.622431   NewTS=>79
            5       346         8      -7.651642     Old=>12
            5       347         8      -7.623821     Old=>28
            5       348         8      -7.622431   NewTS=>80
            5       349         9      -7.651642     Old=>13
            5       350         9      -7.623821     Old=>29
            5       351         9      -7.622431   NewTS=>81
            5       352        10      -7.651642     Old=>11
            5       353        10      -7.623821     Old=>30
            5       354        10      -7.622431   NewTS=>82
            5       355        11      -7.651642     Old=>12
            5       356        11      -7.623821     Old=>31
            5       357        11      -7.622431   NewTS=>83
            5       358        12      -7.651642     Old=>13
            5       359        12      -7.623821     Old=>32
            5       360        12      -7.622431   NewTS=>84
            5       361        13      -7.651642     Old=>1
            5       362        13      -7.623821     Old=>33
            5       363        13      -7.622431   NewTS=>85
            5       364        14      -7.651642     Old=>6
            5       365        14      -7.623821     Old=>34
            5       366        14      -7.622431   NewTS=>86
            5       367        15      -7.651642     Old=>7
            5       368        15      -7.623821     Old=>35
            5       369        15      -7.622431   NewTS=>87
            5       370        16      -7.651642     Old=>8
            5       371        16      -7.623821     Old=>36
            5       372        16      -7.622431   NewTS=>88
            5       373        17      -7.651642     Old=>9
            5       374        17      -7.623821     Old=>37
            5       375        17      -7.622431   NewTS=>89
            5       376        18      -7.651642     Old=>10
            5       377        18      -7.623821     Old=>38
            5       378        18      -7.622431   NewTS=>90
            5       379        19      -7.651642     Old=>9
            5       380        19      -7.623821     Old=>25
            5       381        19      -7.622431   OldTS=>77
            5       382        20      -7.651642     Old=>13
            5       383        20      -7.623821     Old=>29
            5       384        20      -7.622431   OldTS=>81
            5       385        21      -7.651642     Old=>1
            5       386        21      -7.623821     Old=>3
            5       387        21      -7.622431   OldTS=>5
            5       388        22      -7.651642     Old=>12
            5       389        22      -7.623821     Old=>28
            5       390        22      -7.622431   OldTS=>80
            5       391        23      -7.651642     Old=>7
            5       392        23      -7.623821     Old=>23
            5       393        23      -7.622431   OldTS=>75
            5       394        24      -7.651642     Old=>8
            5       395        24      -7.623821     Old=>24
            5       396        24      -7.622431   OldTS=>76
            5       397        25      -7.651642     Old=>6
            5       398        25      -7.623821     Old=>22
            5       399        25      -7.622431   OldTS=>74
            5       400        26      -7.651642     Old=>10
            5       401        26      -7.623821     Old=>26
            5       402        26      -7.622431   OldTS=>78
            5       403        27      -7.651642     Old=>11
            5       404        27      -7.623821     Old=>27
            5       405        27      -7.622431   OldTS=>79
            5       406        28      -7.651642     Old=>11
            5       407        28      -7.623821     Old=>39
            5       408        28      -7.622431   NewTS=>91
            5       409        29      -7.651642     Old=>12
            5       410        29      -7.623821     Old=>40
            5       411        29      -7.622431   NewTS=>92
            5       412        30      -7.651642     Old=>13
            5       413        30      -7.623821     Old=>41
            5       414        30      -7.622431   NewTS=>93
            5       415        31      -7.651642     Old=>1
            5       416        31      -7.623821     Old=>42
            5       417        31      -7.622431   NewTS=>94
            5       418        32      -7.651642     Old=>6
            5       419        32      -7.623821     Old=>43
            5       420        32      -7.622431   NewTS=>95
            5       421        33      -7.651642     Old=>7
            5       422        33      -7.623821     Old=>44
            5       423        33      -7.622431   NewTS=>96
            5       424        34      -7.651642     Old=>8
            5       425        34      -7.623821     Old=>45
            5       426        34      -7.622431   NewTS=>97
            5       427        35      -7.651642     Old=>9
            5       428        35      -7.623821     Old=>46
            5       429        35      -7.622431   NewTS=>98
            5       430        36      -7.651642     Old=>10
            5       431        36      -7.623821     Old=>47
            5       432        36      -7.622431   NewTS=>99
            5       433        37      -7.651642     Old=>1
            5       434        37      -7.623821     Old=>42
            5       435        37      -7.622431   OldTS=>94
            5       436        38      -7.651642     Old=>6
            5       437        38      -7.623821     Old=>43
            5       438        38      -7.622431   OldTS=>95
            5       439        39      -7.651642     Old=>7
            5       440        39      -7.623821     Old=>44
            5       441        39      -7.622431   OldTS=>96
            5       442        40      -7.651642     Old=>8
            5       443        40      -7.623821     Old=>45
            5       444        40      -7.622431   OldTS=>97
            5       445        41      -7.651642     Old=>9
            5       446        41      -7.623821     Old=>46
            5       447        41      -7.622431   OldTS=>98
            5       448        42      -7.651642     Old=>10
            5       449        42      -7.623821     Old=>47
            5       450        42      -7.622431   OldTS=>99
            5       451        43      -7.651642     Old=>11
            5       452        43      -7.623821     Old=>39
            5       453        43      -7.622431   OldTS=>91
            5       454        44      -7.651642     Old=>12
            5       455        44      -7.623821     Old=>40
            5       456        44      -7.622431   OldTS=>92
            5       457        45      -7.651642     Old=>13
            5       458        45      -7.623821     Old=>41
            5       459        45      -7.622431   OldTS=>93
            5       460        46      -7.651642     Old=>9
            5       461        46      -7.623821     Old=>37
            5       462        46      -7.622431   OldTS=>89
            5       463        47      -7.651642     Old=>13
            5       464        47      -7.623821     Old=>32
            5       465        47      -7.622431   OldTS=>84
            5       466        48      -7.651642     Old=>1
            5       467        48      -7.623821     Old=>33
            5       468        48      -7.622431   OldTS=>85
            5       469        49      -7.651642     Old=>12
            5       470        49      -7.623821     Old=>31
            5       471        49      -7.622431   OldTS=>83
            5       472        50      -7.651642     Old=>7
            5       473        50      -7.623821     Old=>35
            5       474        50      -7.622431   OldTS=>87
            5       475        51      -7.651642     Old=>8
            5       476        51      -7.623821     Old=>36
            5       477        51      -7.622431   OldTS=>88
            5       478        52      -7.651642     Old=>6
            5       479        52      -7.623821     Old=>34
            5       480        52      -7.622431   OldTS=>86
            5       481        53      -7.651642     Old=>10
            5       482        53      -7.623821     Old=>38
            5       483        53      -7.622431   OldTS=>90
            5       484        54      -7.651642     Old=>11
            5       485        54      -7.623821     Old=>30
            5       486        54      -7.622431   OldTS=>82
            5       487        55                IGNORED (+z -> -z)
            5       487        56                IGNORED (+z -> -z)
            5       487        57                IGNORED (+z -> -z)
            5       487        58                IGNORED (+z -> -z)
            5       487        59                IGNORED (+z -> -z)
            5       487        60                IGNORED (+z -> -z)
            5       487        61                IGNORED (+z -> -z)
            5       487        62                IGNORED (+z -> -z)
            5       487        63                IGNORED (+z -> -z)
            5       487        64                IGNORED (+z -> -z)
            5       487        65                IGNORED (+z -> -z)
            5       487        66                IGNORED (+z -> -z)
            5       487        67                IGNORED (+z -> -z)
            5       487        68                IGNORED (+z -> -z)
            5       487        69                IGNORED (+z -> -z)
            5       487        70                IGNORED (+z -> -z)
            5       487        71                IGNORED (+z -> -z)
            5       487        72                IGNORED (+z -> -z)
            5       487        73                IGNORED (+z -> -z)
            5       487        74                IGNORED (+z -> -z)
            5       487        75                IGNORED (+z -> -z)
            5       487        76                IGNORED (+z -> -z)
            5       487        77                IGNORED (+z -> -z)
            5       487        78                IGNORED (+z -> -z)
            5       487        79                IGNORED (+z -> -z)
            5       487        80                IGNORED (+z -> -z)
            5       487        81                IGNORED (+z -> -z)
            5       487        82                IGNORED (+z -> -z)
            5       487        83                IGNORED (+z -> -z)
            5       487        84                IGNORED (+z -> -z)
            5       487        85                IGNORED (+z -> -z)
            5       487        86                IGNORED (+z -> -z)
            5       487        87                IGNORED (+z -> -z)
            5       487        88                IGNORED (+z -> -z)
            5       487        89                IGNORED (+z -> -z)
            5       487        90                IGNORED (+z -> -z)
            5       487        91                IGNORED (+z -> -z)
            5       487        92                IGNORED (+z -> -z)
            5       487        93                IGNORED (+z -> -z)
            5       487        94                IGNORED (+z -> -z)
            5       487        95                IGNORED (+z -> -z)
            5       487        96                IGNORED (+z -> -z)
            5       487        97                IGNORED (+z -> -z)
            5       487        98                IGNORED (+z -> -z)
            5       487        99                IGNORED (+z -> -z)
            5       487       100                IGNORED (+z -> -z)
            5       487       101                IGNORED (+z -> -z)
            5       487       102                IGNORED (+z -> -z)
            5       487       103                IGNORED (+z -> -z)
            5       487       104                IGNORED (+z -> -z)
            5       487       105                IGNORED (+z -> -z)
            5       487       106                IGNORED (+z -> -z)
            5       487       107                IGNORED (+z -> -z)
            5       487       108                IGNORED (+z -> -z)

----------------
Energy Landscape
----------------

        Id        Energy(a.u.)         RE(eV)   RE(kcal/mol)    Counts    Crit. point
     --------------------------------------------------------------------------------
         1           -7.651642        0.00000         0.0000        13            Min
         2           -7.651572        0.00192         0.0442        13            Min
         3           -7.623821        0.75706        17.4583         7            Min
         4           -7.622547        0.79172        18.2575        11             TS 2<-->3    
         5           -7.622431        0.79489        18.3306         5             TS 1<-->3    
         6           -7.651642        0.00000         0.0000        12            Min
         7           -7.651642        0.00000         0.0000        12            Min
         8           -7.651642        0.00000         0.0000        12            Min
         9           -7.651642        0.00000         0.0000        12            Min
        10           -7.651642        0.00000         0.0000        12            Min
        11           -7.651642        0.00000         0.0000        12            Min
        12           -7.651642        0.00000         0.0000        12            Min
        13           -7.651642        0.00000         0.0000        12            Min
        14           -7.651572        0.00192         0.0442        12            Min
        15           -7.651572        0.00192         0.0442        12            Min
        16           -7.651572        0.00192         0.0442        12            Min
        17           -7.651572        0.00192         0.0442        12            Min
        18           -7.651572        0.00192         0.0442        12            Min
        19           -7.651572        0.00192         0.0442        12            Min
        20           -7.651572        0.00192         0.0442        12            Min
        21           -7.651572        0.00192         0.0442        12            Min
        22           -7.623821        0.75706        17.4583         6            Min
        23           -7.623821        0.75706        17.4583         6            Min
        24           -7.623821        0.75706        17.4583         6            Min
        25           -7.623821        0.75706        17.4583         6            Min
        26           -7.623821        0.75706        17.4583         6            Min
        27           -7.623821        0.75706        17.4583         6            Min
        28           -7.623821        0.75706        17.4583         6            Min
        29           -7.623821        0.75706        17.4583         6            Min
        30           -7.623821        0.75706        17.4583         6            Min
        31           -7.623821        0.75706        17.4583         6            Min
        32           -7.623821        0.75706        17.4583         6            Min
        33           -7.623821        0.75706        17.4583         6            Min
        34           -7.623821        0.75706        17.4583         6            Min
        35           -7.623821        0.75706        17.4583         6            Min
        36           -7.623821        0.75706        17.4583         6            Min
        37           -7.623821        0.75706        17.4583         6            Min
        38           -7.623821        0.75706        17.4583         6            Min
        39           -7.623821        0.75706        17.4583         6            Min
        40           -7.623821        0.75706        17.4583         6            Min
        41           -7.623821        0.75706        17.4583         6            Min
        42           -7.623821        0.75706        17.4583         6            Min
        43           -7.623821        0.75706        17.4583         6            Min
        44           -7.623821        0.75706        17.4583         6            Min
        45           -7.623821        0.75706        17.4583         6            Min
        46           -7.623821        0.75706        17.4583         6            Min
        47           -7.623821        0.75706        17.4583         6            Min
        48           -7.622547        0.79172        18.2575         2             TS 14<-->22  
        49           -7.622547        0.79172        18.2575         2             TS 15<-->23  
        50           -7.622547        0.79172        18.2575         2             TS 16<-->24  
        51           -7.622547        0.79172        18.2575         2             TS 17<-->25  
        52           -7.622547        0.79172        18.2575         2             TS 18<-->26  
        53           -7.622547        0.79172        18.2575         2             TS 19<-->27  
        54           -7.622547        0.79172        18.2575         2             TS 20<-->28  
        55           -7.622547        0.79172        18.2575         2             TS 21<-->29  
        56           -7.622547        0.79172        18.2575         2             TS 2<-->30   
        57           -7.622547        0.79172        18.2575         2             TS 14<-->31  
        58           -7.622547        0.79172        18.2575         2             TS 15<-->32  
        59           -7.622547        0.79172        18.2575         2             TS 16<-->33  
        60           -7.622547        0.79172        18.2575         2             TS 17<-->34  
        61           -7.622547        0.79172        18.2575         2             TS 18<-->35  
        62           -7.622547        0.79172        18.2575         2             TS 19<-->36  
        63           -7.622547        0.79172        18.2575         2             TS 20<-->37  
        64           -7.622547        0.79172        18.2575         2             TS 21<-->38  
        65           -7.622547        0.79172        18.2575         2             TS 17<-->39  
        66           -7.622547        0.79172        18.2575         2             TS 21<-->40  
        67           -7.622547        0.79172        18.2575         2             TS 2<-->41   
        68           -7.622547        0.79172        18.2575         2             TS 20<-->42  
        69           -7.622547        0.79172        18.2575         2             TS 15<-->43  
        70           -7.622547        0.79172        18.2575         2             TS 16<-->44  
        71           -7.622547        0.79172        18.2575         2             TS 14<-->45  
        72           -7.622547        0.79172        18.2575         2             TS 18<-->46  
        73           -7.622547        0.79172        18.2575         2             TS 19<-->47  
        74           -7.622431        0.79489        18.3306         2             TS 6<-->22   
        75           -7.622431        0.79489        18.3306         2             TS 7<-->23   
        76           -7.622431        0.79489        18.3306         2             TS 8<-->24   
        77           -7.622431        0.79489        18.3306         2             TS 9<-->25   
        78           -7.622431        0.79489        18.3306         2             TS 10<-->26  
        79           -7.622431        0.79489        18.3306         2             TS 11<-->27  
        80           -7.622431        0.79489        18.3306         2             TS 12<-->28  
        81           -7.622431        0.79489        18.3306         2             TS 13<-->29  
        82           -7.622431        0.79489        18.3306         2             TS 11<-->30  
        83           -7.622431        0.79489        18.3306         2             TS 12<-->31  
        84           -7.622431        0.79489        18.3306         2             TS 13<-->32  
        85           -7.622431        0.79489        18.3306         2             TS 1<-->33   
        86           -7.622431        0.79489        18.3306         2             TS 6<-->34   
        87           -7.622431        0.79489        18.3306         2             TS 7<-->35   
        88           -7.622431        0.79489        18.3306         2             TS 8<-->36   
        89           -7.622431        0.79489        18.3306         2             TS 9<-->37   
        90           -7.622431        0.79489        18.3306         2             TS 10<-->38  
        91           -7.622431        0.79489        18.3306         2             TS 11<-->39  
        92           -7.622431        0.79489        18.3306         2             TS 12<-->40  
        93           -7.622431        0.79489        18.3306         2             TS 13<-->41  
        94           -7.622431        0.79489        18.3306         2             TS 1<-->42   
        95           -7.622431        0.79489        18.3306         2             TS 6<-->43   
        96           -7.622431        0.79489        18.3306         2             TS 7<-->44   
        97           -7.622431        0.79489        18.3306         2             TS 8<-->45   
        98           -7.622431        0.79489        18.3306         2             TS 9<-->46   
        99           -7.622431        0.79489        18.3306         2             TS 10<-->47  

Number of configurations                            99
Number of local minima                              45
Number of transition states                         54
Energy range (a.u.)                           0.029212
Energy range (eV)                              0.79489
Energy range (kcal/mol)                        18.3306

Fragments
---------

Number of fragments                                  2

        Id             Formula        Energy(a.u.)              Region
     -----------------------------------------------------------------
         1                  CO           -0.424454              active
         2                Pt36           -7.154286             surface

Fragmented States
-----------------

Number of fragmented states                          1

        Id           Fragments        Energy(a.u.)         RE(eV)   RE(kcal/mol)
     ---------------------------------------------------------------------------
         1                 1,2           -7.578740        1.98377        45.7468 -->1         8.05E+06:1.66E+16*
                                                                                 -->2         8.05E+06:1.64E+16 
                                                                                 -->3         8.05E+06:2.37E+15 


*) Pre-exponential factors adsorption in (bar*s)^-1 and desorption in s^-1 or Hz


> Sorting Energy Landscape by Energy ... DONE

----------------
Energy Landscape
----------------

        Id        Energy(a.u.)         RE(eV)   RE(kcal/mol)    Counts    Crit. point
     --------------------------------------------------------------------------------
         1           -7.651642        0.00000         0.0000        13            Min
         2           -7.651642        0.00000         0.0000        12            Min
         3           -7.651642        0.00000         0.0000        12            Min
         4           -7.651642        0.00000         0.0000        12            Min
         5           -7.651642        0.00000         0.0000        12            Min
         6           -7.651642        0.00000         0.0000        12            Min
         7           -7.651642        0.00000         0.0000        12            Min
         8           -7.651642        0.00000         0.0000        12            Min
         9           -7.651642        0.00000         0.0000        12            Min
        10           -7.651572        0.00192         0.0442        13            Min
        11           -7.651572        0.00192         0.0442        12            Min
        12           -7.651572        0.00192         0.0442        12            Min
        13           -7.651572        0.00192         0.0442        12            Min
        14           -7.651572        0.00192         0.0442        12            Min
        15           -7.651572        0.00192         0.0442        12            Min
        16           -7.651572        0.00192         0.0442        12            Min
        17           -7.651572        0.00192         0.0442        12            Min
        18           -7.651572        0.00192         0.0442        12            Min
        19           -7.623821        0.75706        17.4583         7            Min
        20           -7.623821        0.75706        17.4583         6            Min
        21           -7.623821        0.75706        17.4583         6            Min
        22           -7.623821        0.75706        17.4583         6            Min
        23           -7.623821        0.75706        17.4583         6            Min
        24           -7.623821        0.75706        17.4583         6            Min
        25           -7.623821        0.75706        17.4583         6            Min
        26           -7.623821        0.75706        17.4583         6            Min
        27           -7.623821        0.75706        17.4583         6            Min
        28           -7.623821        0.75706        17.4583         6            Min
        29           -7.623821        0.75706        17.4583         6            Min
        30           -7.623821        0.75706        17.4583         6            Min
        31           -7.623821        0.75706        17.4583         6            Min
        32           -7.623821        0.75706        17.4583         6            Min
        33           -7.623821        0.75706        17.4583         6            Min
        34           -7.623821        0.75706        17.4583         6            Min
        35           -7.623821        0.75706        17.4583         6            Min
        36           -7.623821        0.75706        17.4583         6            Min
        37           -7.623821        0.75706        17.4583         6            Min
        38           -7.623821        0.75706        17.4583         6            Min
        39           -7.623821        0.75706        17.4583         6            Min
        40           -7.623821        0.75706        17.4583         6            Min
        41           -7.623821        0.75706        17.4583         6            Min
        42           -7.623821        0.75706        17.4583         6            Min
        43           -7.623821        0.75706        17.4583         6            Min
        44           -7.623821        0.75706        17.4583         6            Min
        45           -7.623821        0.75706        17.4583         6            Min
        46           -7.622547        0.79172        18.2575        11             TS 10<-->19  
        47           -7.622547        0.79172        18.2575         2             TS 13<-->20  
        48           -7.622547        0.79172        18.2575         2             TS 14<-->22  
        49           -7.622547        0.79172        18.2575         2             TS 15<-->23  
        50           -7.622547        0.79172        18.2575         2             TS 16<-->24  
        51           -7.622547        0.79172        18.2575         2             TS 17<-->25  
        52           -7.622547        0.79172        18.2575         2             TS 18<-->26  
        53           -7.622547        0.79172        18.2575         2             TS 13<-->27  
        54           -7.622547        0.79172        18.2575         2             TS 11<-->28  
        55           -7.622547        0.79172        18.2575         2             TS 12<-->29  
        56           -7.622547        0.79172        18.2575         2             TS 10<-->30  
        57           -7.622547        0.79172        18.2575         2             TS 14<-->31  
        58           -7.622547        0.79172        18.2575         2             TS 15<-->32  
        59           -7.622547        0.79172        18.2575         2             TS 16<-->33  
        60           -7.622547        0.79172        18.2575         2             TS 17<-->34  
        61           -7.622547        0.79172        18.2575         2             TS 18<-->35  
        62           -7.622547        0.79172        18.2575         2             TS 13<-->36  
        63           -7.622547        0.79172        18.2575         2             TS 11<-->37  
        64           -7.622547        0.79172        18.2575         2             TS 12<-->38  
        65           -7.622547        0.79172        18.2575         2             TS 17<-->39  
        66           -7.622547        0.79172        18.2575         2             TS 12<-->40  
        67           -7.622547        0.79172        18.2575         2             TS 10<-->41  
        68           -7.622547        0.79172        18.2575         2             TS 11<-->42  
        69           -7.622547        0.79172        18.2575         2             TS 15<-->43  
        70           -7.622547        0.79172        18.2575         2             TS 16<-->44  
        71           -7.622547        0.79172        18.2575         2             TS 14<-->45  
        72           -7.622547        0.79172        18.2575         2             TS 18<-->21  
        73           -7.622431        0.79489        18.3306         5             TS 1<-->19   
        74           -7.622431        0.79489        18.3306         2             TS 6<-->22   
        75           -7.622431        0.79489        18.3306         2             TS 7<-->23   
        76           -7.622431        0.79489        18.3306         2             TS 8<-->24   
        77           -7.622431        0.79489        18.3306         2             TS 9<-->25   
        78           -7.622431        0.79489        18.3306         2             TS 2<-->26   
        79           -7.622431        0.79489        18.3306         2             TS 5<-->27   
        80           -7.622431        0.79489        18.3306         2             TS 4<-->28   
        81           -7.622431        0.79489        18.3306         2             TS 3<-->29   
        82           -7.622431        0.79489        18.3306         2             TS 5<-->30   
        83           -7.622431        0.79489        18.3306         2             TS 4<-->31   
        84           -7.622431        0.79489        18.3306         2             TS 3<-->32   
        85           -7.622431        0.79489        18.3306         2             TS 1<-->33   
        86           -7.622431        0.79489        18.3306         2             TS 6<-->34   
        87           -7.622431        0.79489        18.3306         2             TS 7<-->35   
        88           -7.622431        0.79489        18.3306         2             TS 8<-->36   
        89           -7.622431        0.79489        18.3306         2             TS 9<-->37   
        90           -7.622431        0.79489        18.3306         2             TS 2<-->38   
        91           -7.622431        0.79489        18.3306         2             TS 5<-->39   
        92           -7.622431        0.79489        18.3306         2             TS 4<-->40   
        93           -7.622431        0.79489        18.3306         2             TS 3<-->41   
        94           -7.622431        0.79489        18.3306         2             TS 1<-->42   
        95           -7.622431        0.79489        18.3306         2             TS 6<-->43   
        96           -7.622431        0.79489        18.3306         2             TS 7<-->44   
        97           -7.622431        0.79489        18.3306         2             TS 8<-->45   
[...]
  202      N6       5       1      -7.651642        5.08241        1.35381        9.52294
  203      N5      28       1      -7.623821        5.08289        2.17442        9.50051
  204      N6       5       1      -7.651642        5.08241        1.35381        9.52294
  205      N5      28       1      -7.623821        5.08289        2.17442        9.50051
  206      N6       4       1      -7.651642        3.69648        3.75431        9.52294
  207      N5      36       1      -7.623821        3.69696        4.57492        9.50051
  208      N6       4       1      -7.651642        3.69648        3.75431        9.52294
  209      N5      36       1      -7.623821        3.69696        4.57492        9.50051
  210      N6       5       1      -7.651642        5.08241        1.35381        9.52294
  211      N5      37       1      -7.623821        5.79331        0.94393        9.50051
  212      N6       5       1      -7.651642        5.08241        1.35381        9.52294
  213      N5      37       1      -7.623821        5.79331        0.94393        9.50051
  214      N6       6       1      -7.651642       10.62613        6.15481        9.52294
  215      N5      33       1      -7.623821       11.33703        5.74493        9.50051
  216      N6       6       1      -7.651642       10.62613        6.15481        9.52294
  217      N5      33       1      -7.623821       11.33703        5.74493        9.50051
  218      N6       6       1      -7.651642       10.62613        6.15481        9.52294
  219      N5      35       1      -7.623821       10.62660        6.97542        9.50051
  220      N6       6       1      -7.651642       10.62613        6.15481        9.52294
  221      N5      35       1      -7.623821       10.62660        6.97542        9.50051
  222      N6       7       1      -7.651642        9.24020        3.75431        9.52294
  223      N5      32       1      -7.623821        9.95110        3.34443        9.50051
  224      N6       7       1      -7.651642        9.24020        3.75431        9.52294
  225      N5      32       1      -7.623821        9.95110        3.34443        9.50051
  226      N6       8       1      -7.651642        7.85427        6.15481        9.52294
  227      N5      34       1      -7.623821        7.85474        6.97542        9.50051
  228      N6       8       1      -7.651642        7.85427        6.15481        9.52294
  229      N5      34       1      -7.623821        7.85474        6.97542        9.50051
  230      N6       6       1      -7.651642       10.62613        6.15481        9.52294
  231      N5      40       1      -7.623821        9.91624        5.74493        9.50051
  232      N6       6       1      -7.651642       10.62613        6.15481        9.52294
  233      N5      40       1      -7.623821        9.91624        5.74493        9.50051
  234      N6       7       1      -7.651642        9.24020        3.75431        9.52294
  235      N5      41       1      -7.623821        8.53031        3.34443        9.50051
  236      N6       7       1      -7.651642        9.24020        3.75431        9.52294
  237      N5      41       1      -7.623821        8.53031        3.34443        9.50051
  238      N6       8       1      -7.651642        7.85427        6.15481        9.52294
  239      N5      39       1      -7.623821        7.14438        5.74493        9.50051
  240      N6       8       1      -7.651642        7.85427        6.15481        9.52294
  241      N5      39       1      -7.623821        7.14438        5.74493        9.50051
  242      N6       7       1      -7.651642        9.24020        3.75431        9.52294
  243      N5      44       1      -7.623821        9.24067        4.57492        9.50051
  244      N6       7       1      -7.651642        9.24020        3.75431        9.52294
  245      N5      44       1      -7.623821        9.24067        4.57492        9.50051
  246      N6       8       1      -7.651642        7.85427        6.15481        9.52294
  247      N5      45       1      -7.623821        8.56517        5.74493        9.50051
  248      N6       8       1      -7.651642        7.85427        6.15481        9.52294
  249      N5      45       1      -7.623821        8.56517        5.74493        9.50051
  250      N6       9       1      -7.651642        6.46834        3.75431        9.52294
  251      N5      38       1      -7.623821        5.75845        3.34443        9.50051
  252      N6       9       1      -7.651642        6.46834        3.75431        9.52294
  253      N5      38       1      -7.623821        5.75845        3.34443        9.50051
  254      N6       9       1      -7.651642        6.46834        3.75431        9.52294
  255      N5      43       1      -7.623821        7.17924        3.34443        9.50051
  256      N6       9       1      -7.651642        6.46834        3.75431        9.52294
  257      N5      43       1      -7.623821        7.17924        3.34443        9.50051
  258      N6       9       1      -7.651642        6.46834        3.75431        9.52294
  259      N5      42       1      -7.623821        6.46881        4.57492        9.50051
  260      N6       9       1      -7.651642        6.46834        3.75431        9.52294
  261      N5      42       1      -7.623821        6.46881        4.57492        9.50051

Connections:

   id  Source  Target       ld
    1      46      47     0  0
    2      48      49     0  0
    3      50      51     0 -1
    4      52      53     0 -1
    5      54      55    -1  0
    6      56      57    -1  0
    7      58      59     0  0
    8      60      61     0  0
    9      62      63     0  0
   10      64      65     0  0
   11      66      67     0  0
   12      68      69     0  0
   13      70      71     0  0
   14      72      73     0  0
   15      74      75    -1  0
   16      76      77    -1  0
   17      78      79     0 -1
   18      80      81     0 -1
   19      82      83     0  0
   20      84      85     0  0
   21      86      87     0  0
   22      88      89     0  0
   23      90      91     0  0
   24      92      93     0  0
   25      94      95     0  0
   26      96      97     0  0
   27      98      99    -1  0
   28     100     101    -1  0
   29     102     103     0 -1
   30     104     105     0 -1
   31     106     107     0  0
   32     108     109     0  0
   33     110     111     0  0
   34     112     113     0  0
   35     114     115     0  0
   36     116     117     0  0
   37     118     119     0  0
   38     120     121     0  0
   39     122     123     0  0
   40     124     125     0  0
   41     126     127     0  0
   42     128     129     0  0
   43     130     131     0  0
   44     132     133     0  0
   45     134     135     0  0
   46     136     137     0  0
   47     138     139     0  0
   48     140     141     0  0
   49     142     143     0  0
   50     144     145     0  0
   51     146     147     0  0
   52     148     149     0  0
   53     150     151     0  0
   54     152     153     0  0
   55     154     155     0  0
   56     156     157     0  0
   57     158     159     0  0
   58     160     161     0  0
   59     162     163     0  0
   60     164     165     0  0
   61     166     167     0  0
   62     168     169     0  0
   63     170     171     0  0
   64     172     173     0  0
   65     174     175     0  0
   66     176     177     0  0
   67     178     179     0  0
   68     180     181     0  0
   69     182     183     0  0
   70     184     185     0  0
   71     186     187     0  0
   72     188     189     0  0
   73     190     191     0  0
   74     192     193     0  0
   75     194     195     0  0
   76     196     197     0  0
   77     198     199     0  0
   78     200     201     0  0
   79     202     203     0  0
   80     204     205     0  0
   81     206     207     0  0
   82     208     209     0  0
   83     210     211     0  0
   84     212     213     0  0
   85     214     215     0  0
   86     216     217     0  0
   87     218     219     0  0
   88     220     221     0  0
   89     222     223     0  0
   90     224     225     0  0
   91     226     227     0  0
   92     228     229     0  0
   93     230     231     0  0
   94     232     233     0  0
   95     234     235     0  0
   96     236     237     0  0
   97     238     239     0  0
   98     240     241     0  0
   99     242     243     0  0
  100     244     245     0  0
  101     246     247     0  0
  102     248     249     0  0
  103     250     251     0  0
  104     252     253     0  0
  105     254     255     0  0
  106     256     257     0  0
  107     258     259     0  0
  108     260     261     0  0

-------------
Binding Sites
-------------

Number of binding sites:                            45
Number of connections:                              54

Binding sites:

   id   Label   Aver.E(a.u.)  Stdev.E(a.u.)              x              y              z     Parents
    1      N7      -7.651572       0.000000        0.92566        0.55493        9.52486     15(1)
    2      N6      -7.651642       0.000000        2.31055        1.35381        9.52294     1(1)
    3      N7      -7.651572       0.000000        2.31159        2.95543        9.52486     11(1)
    4      N7      -7.651572       0.000000        3.69752        0.55493        9.52486     17(1)
    5      N6      -7.651642       0.000000        3.69648        3.75431        9.52294     4(1)
    6      N7      -7.651572       0.000000        3.69752        5.35593        9.52486     10(1)
    7      N6      -7.651642       0.000000        5.08241        1.35381        9.52294     5(1)
    8      N7      -7.651572       0.000000        5.08345        2.95543        9.52486     14(1)
    9      N6      -7.651642       0.000000        5.08241        6.15481        9.52294     2(1)
   10      N7      -7.651572       0.000000        6.46938        0.55493        9.52486     18(1)
   11      N6      -7.651642       0.000000        6.46834        3.75431        9.52294     9(1)
   12      N7      -7.651572       0.000000        6.46938        5.35593        9.52486     12(1)
   13      N6      -7.651642       0.000000        7.85427        1.35381        9.52294     3(1)
   14      N6      -7.651642       0.000000        7.85427        6.15481        9.52294     8(1)
   15      N7      -7.651572       0.000000        7.85530        2.95543        9.52486     16(1)
   16      N6      -7.651642       0.000000        9.24020        3.75431        9.52294     7(1)
   17      N7      -7.651572       0.000000        9.24123        5.35593        9.52486     13(1)
   18      N6      -7.651642       0.000000       10.62613        6.15481        9.52294     6(1)
   19      N5      -7.623821       0.000000        1.60066        0.94393        9.50051     19(1)
   20      N5      -7.623821       0.000000        2.31103        2.17442        9.50051     21(1)
   21      N5      -7.623821       0.000000        2.98659        3.34443        9.50051     26(1)
   22      N5      -7.623821       0.000000        3.02145        0.94393        9.50051     20(1)
   23      N5      -7.623821       0.000000        3.69696        4.57492        9.50051     36(1)
   24      N5      -7.623821       0.000000        4.37252        0.94393        9.50051     29(1)
   25      N5      -7.623821       0.000000        4.37252        5.74493        9.50051     27(1)
   26      N5      -7.623821       0.000000        4.40738        3.34443        9.50051     24(1)
   27      N5      -7.623821       0.000000        5.08289        2.17442        9.50051     28(1)
   28      N5      -7.623821       0.000000        5.08289        6.97542        9.50051     22(1)
   29      N5      -7.623821       0.000000        5.75845        3.34443        9.50051     38(1)
   30      N5      -7.623821       0.000000        5.79331        0.94393        9.50051     37(1)
   31      N5      -7.623821       0.000000        5.79331        5.74493        9.50051     25(1)
   32      N5      -7.623821       0.000000        6.46881        4.57492        9.50051     42(1)
   33      N5      -7.623821       0.000000        7.14438        0.94393        9.50051     30(1)
   34      N5      -7.623821       0.000000        7.14438        5.74493        9.50051     39(1)
   35      N5      -7.623821       0.000000        7.17924        3.34443        9.50051     43(1)
   36      N5      -7.623821       0.000000        7.85474        2.17442        9.50051     31(1)
   37      N5      -7.623821       0.000000        7.85474        6.97542        9.50051     34(1)
   38      N5      -7.623821       0.000000        8.53031        3.34443        9.50051     41(1)
   39      N5      -7.623821       0.000000        8.56517        0.94393        9.50051     23(1)
   40      N5      -7.623821       0.000000        8.56517        5.74493        9.50051     45(1)
   41      N5      -7.623821       0.000000        9.24067        4.57492        9.50051     44(1)
   42      N5      -7.623821       0.000000        9.91624        5.74493        9.50051     40(1)
   43      N5      -7.623821       0.000000        9.95110        3.34443        9.50051     32(1)
   44      N5      -7.623821       0.000000       10.62660        6.97542        9.50051     35(1)
   45      N5      -7.623821       0.000000       11.33703        5.74493        9.50051     33(1)

Binding sites (fractional):

   id   Label   Aver.E(a.u.)  Stdev.E(a.u.)              x              y              z     Parents
    1      N7      -7.651572       0.000000        0.07279        0.07706       17.99938     15(1)
    2      N6      -7.651642       0.000000        0.18386        0.18799       17.99575     1(1)
    3      N7      -7.651572       0.000000        0.07279        0.41039       17.99938     11(1)
    4      N7      -7.651572       0.000000        0.40612        0.07706       17.99938     17(1)
    5      N6      -7.651642       0.000000        0.18386        0.52132       17.99575     4(1)
    6      N7      -7.651572       0.000000        0.07279        0.74372       17.99938     10(1)
    7      N6      -7.651642       0.000000        0.51720        0.18799       17.99575     5(1)
    8      N7      -7.651572       0.000000        0.40612        0.41039       17.99938     14(1)
    9      N6      -7.651642       0.000000        0.18386        0.85466       17.99575     2(1)
   10      N7      -7.651572       0.000000        0.73945        0.07706       17.99938     18(1)
   11      N6      -7.651642       0.000000        0.51720        0.52132       17.99575     9(1)
   12      N7      -7.651572       0.000000        0.40612        0.74372       17.99938     12(1)
   13      N6      -7.651642       0.000000        0.85053        0.18799       17.99575     3(1)
   14      N6      -7.651642       0.000000        0.51720        0.85466       17.99575     8(1)
   15      N7      -7.651572       0.000000        0.73945        0.41039       17.99938     16(1)
   16      N6      -7.651642       0.000000        0.85053        0.52132       17.99575     7(1)
   17      N7      -7.651572       0.000000        0.73945        0.74372       17.99938     13(1)
   18      N6      -7.651642       0.000000        0.85053        0.85466       17.99575     6(1)
   19      N5      -7.623821       0.000000        0.12695        0.13107       17.95335     19(1)
   20      N5      -7.623821       0.000000        0.12695        0.30194       17.95335     21(1)
   21      N5      -7.623821       0.000000        0.12695        0.46441       17.95335     26(1)
   22      N5      -7.623821       0.000000        0.29781        0.13107       17.95335     20(1)
   23      N5      -7.623821       0.000000        0.12695        0.63527       17.95335     36(1)
   24      N5      -7.623821       0.000000        0.46029        0.13107       17.95335     29(1)
   25      N5      -7.623821       0.000000        0.12695        0.79774       17.95335     27(1)
   26      N5      -7.623821       0.000000        0.29781        0.46441       17.95335     24(1)
   27      N5      -7.623821       0.000000        0.46028        0.30194       17.95335     28(1)
   28      N5      -7.623821       0.000000        0.12695        0.96861       17.95335     22(1)
   29      N5      -7.623821       0.000000        0.46029        0.46441       17.95335     38(1)
   30      N5      -7.623821       0.000000        0.63114        0.13107       17.95335     37(1)
   31      N5      -7.623821       0.000000        0.29781        0.79774       17.95335     25(1)
   32      N5      -7.623821       0.000000        0.46028        0.63527       17.95335     42(1)
   33      N5      -7.623821       0.000000        0.79362        0.13107       17.95335     30(1)
   34      N5      -7.623821       0.000000        0.46029        0.79774       17.95335     39(1)
   35      N5      -7.623821       0.000000        0.63114        0.46441       17.95335     43(1)
   36      N5      -7.623821       0.000000        0.79361        0.30194       17.95335     31(1)
   37      N5      -7.623821       0.000000        0.46028        0.96861       17.95335     34(1)
   38      N5      -7.623821       0.000000        0.79362        0.46441       17.95335     41(1)
   39      N5      -7.623821       0.000000        0.96448        0.13107       17.95335     23(1)
   40      N5      -7.623821       0.000000        0.63114        0.79774       17.95335     45(1)
   41      N5      -7.623821       0.000000        0.79361        0.63527       17.95335     44(1)
   42      N5      -7.623821       0.000000        0.79362        0.79774       17.95335     40(1)
   43      N5      -7.623821       0.000000        0.96448        0.46441       17.95335     32(1)
   44      N5      -7.623821       0.000000        0.79361        0.96861       17.95335     35(1)
   45      N5      -7.623821       0.000000        0.96448        0.79774       17.95335     33(1)

Connections:

   id  Source  Target       ld
    1       1      19     0  0
    2       1      28     0 -1
    3       1      39    -1  0
    4       3      20     0  0
    5       4      22     0  0
    6       3      21     0  0
    7       4      24     0  0
    8       3      43    -1  0
    9       4      37     0 -1
   10       8      26     0  0
   11       8      27     0  0
   12       6      25     0  0
   13      10      33     0  0
   14       6      45    -1  0
   15      10      44     0 -1
   16       6      23     0  0
   17      12      31     0  0
   18      10      30     0  0
   19      15      36     0  0
   20       8      29     0  0
   21      12      34     0  0
   22      15      38     0  0
   23      12      32     0  0
   24      15      35     0  0
   25      17      42     0  0
   26      17      41     0  0
   27      17      40     0  0
   28       2      19     0  0
   29       2      22     0  0
   30       2      20     0  0
   31       9      28     0  0
   32      13      39     0  0
   33       9      25     0  0
   34      13      33     0  0
   35       9      31     0  0
   36      13      36     0  0
   37       5      21     0  0
   38       7      24     0  0
   39       5      26     0  0
   40       7      27     0  0
   41       5      23     0  0
   42       7      30     0  0
   43      18      45     0  0
   44      18      44     0  0
   45      16      43     0  0
   46      14      37     0  0
   47      18      42     0  0
   48      16      38     0  0
   49      14      34     0  0
   50      16      41     0  0
   51      14      40     0  0
   52      11      29     0  0
   53      11      35     0  0
   54      11      32     0  0

AMS application finished. Exiting.
NORMAL TERMINATION
     Total cpu time:     640.59
  Total system time:       8.45
 Total elapsed time:     164.22
Floating license: not using directory 
