
 *******************************************************************************
 *                                                                             *
 *  --------------------------------                                           *
 *   Amsterdam Modeling Suite (AMS)              2019.405                      *
 *  --------------------------------                                           *
 *                                               r87350 2020-09-02             *
 *                                                                             *
 *                                                                             *
 *                              =================                              *
 *                              |               |                              *
 *                              |     A M S     |                              *
 *                              |               |                              *
 *                              =================                              *
 *                                                                             *
 *                                                                             *
 *   Online information and documentation:  https://www.scm.com/support/       *
 *   E-mail:  support@scm.com   info@scm.com                                   *
 *                                                                             *
 *   Scientific publications using AMS results must be properly referenced     *
 *   See the User Manuals (or the web site) for recommended citations          *
 *   The terms and conditions of the End User License Agreement apply to       *
 *   the use of AMS, https://www.scm.com/license-terms/                        *
 *                                                                             *
 ****************************  x86_64_linux_intel  *****************************
 
 Licensed to: Dr. Nestor Aguirre Castiblanco  / SCM / Amsterdam / NETHERLANDS
 SCM User ID: u22021
  
 AMS 2019.405  RunTime: Sep07-2020 18:05:34  Nodes: 1  Procs: 1

 AMS jobname: ProcessSearch-EON
 AMS jobid  : 1848494887

 Start   directory: /home/aguirre/Develop/pyZacros/plams_workdir/ProcessSearch-EON/
 Results directory: /home/aguirre/Develop/pyZacros/plams_workdir/ProcessSearch-EON/
 Scratch directory: /scratch/aguirre/amstmp_ProcessSearch-EON_kid0.1848494887/

 RNG seed: -1720679814 2080609744 -131601650 2137762331 546212273 -1108903521 517213703 -850059746
 MPI rank    0: Number of processors available to this process:      8
 MPI rank    0: Default max number of OpenMP threads:                1
 MPI rank    0: The OMP_NUM_THREADS environment variable is not set!
Force field identifier: Reactive MD-force field: C/H/O/N/S/F/Pt/
 Triple bond stabilization enabled for C-O only
 Non-bonding interaction type[nonbontype]:
 No inner wall, shielding
 Warning:changed vval3 to valf for X 

       ***********************************
       *  EON (Long timescale dynamics)  *
       ***********************************

--------------
EON Parameters
--------------

Relaxing 3 degrees of freedom

RandomSeed                                         100
Temperature                                  300.00000
FiniteDifference                               0.01000
SamplingFreq                                    normal
NumJobs                                            150
      
   StructureComparison
   -------------------
   DistanceDifference                          0.10000
   NeighborCutoff                             10.00000
   CheckRotation                                     F
   IndistinguishableAtoms                            T
   EnergyDifference                            0.01000
   RemoveTranslation                                 T

   SaddleSearch
   ------------
   DisplaceMinNorm                             0.00000
 
--------
Geometry
--------
Atoms
  Index Symbol   x (angstrom)   y (angstrom)   z (angstrom)
      1      O     5.54298287     1.60250367     8.92707013       region=adsorbate
      2     Pt     8.31521714     4.80239136     7.78926430       region=surface
      3     Pt     5.54298786     0.00160612     7.79128800       region=surface
      4     Pt     6.92910250     2.40199874     7.79027615       region=surface
      5     Pt    11.08707571     4.80244586     7.78854885       region=surface
      6     Pt     8.31484643     0.00166062     7.79057254       region=surface
      7     Pt     9.70096096     2.40178486     7.79068672       region=surface
      8     Pt     5.54335868     4.80260524     7.78885374       region=surface
      9     Pt     2.77112940     0.00182001     7.79087743       region=surface
     10     Pt     4.15724404     2.40221263     7.78986559       region=surface
     11     Pt     9.70154331     5.60130339     5.52585419       region=surface
     12     Pt     6.92931403     0.80051815     5.52787789       region=surface
     13     Pt     8.31542867     3.20091077     5.52686604       region=surface
     14     Pt     4.15782639     5.60173116     5.52503306       region=surface
     15     Pt     1.38559711     0.80094593     5.52705675       region=surface
     16     Pt     2.77171175     3.20133854     5.52604491       region=surface
     17     Pt     6.92968485     5.60151727     5.52544363       region=surface
     18     Pt     4.15745557     0.80073204     5.52746732       region=surface
     19     Pt     5.54357021     3.20112466     5.52645547       region=surface
     20     Pt     6.92989639     4.00003668     3.26303536       region=surface
     21     Pt     8.31601103     6.40042930     3.26202352       region=surface
     22     Pt     5.54378174     1.59964406     3.26404721       region=surface
     23     Pt     9.70175484     3.99982280     3.26344593       region=surface
     24     Pt    11.08786948     6.40021541     3.26243408       region=surface
     25     Pt     8.31564020     1.59943018     3.26445778       region=surface
     26     Pt     4.15803792     4.00025057     3.26262480       region=surface
     27     Pt     5.54415256     6.40064318     3.26161295       region=surface
     28     Pt     2.77192328     1.59985795     3.26363664       region=surface
     29     Pt     1.38639089     2.39871548     1.00094199       region=surface
     30     Pt     5.54436409     4.79916260     0.99921469       region=surface
     31     Pt     6.93024583     7.19969029     1.00043291       region=surface
     32     Pt     4.15824945     2.39876998     1.00022653       region=surface
     33     Pt     8.31622256     4.79894871     0.99962525       region=surface
     34     Pt     9.70210429     7.19947641     1.00084348       region=surface
     35     Pt     6.93010792     2.39855609     1.00063710       region=surface
     36     Pt     2.77250564     4.79937648     0.99880412       region=surface
     37     Pt     4.15838737     7.19990418     1.00002234       region=surface
 
Lattice vectors (angstrom)
      1     8.31557575     0.00000000     0.00000000
      2     4.15778787     7.20149984     0.00000000
      3     0.00000000     0.00000000    20.00000000
 
Unit cell volume (angstrom^3)      1197.69235
 
Total System Charge             0.00000
 

-------------
EON Execution
-------------

EON Client (LIB)
VERSION: r85950M
BUILD DATE: Sat Jul 11 11:06:34 WEDT 2020

Hostname: aguirre-XPS-13-7390
OS: Linux
Arch: x86_64
PID: 5990
DIR: /home/aguirre/Develop/pyZacros/plams_workdir/ProcessSearch-EON



EON client 1/150
----------------

 Next seed state =            0
 
Minimizing initial structure
[Matter]       Iter       Step size           ||Force||         Energy
[Matter]          0     0.00000e+00         1.06822e-03     -198.06119
[Matter]          1     4.44006e-05         3.49624e-04     -198.06119
Saddle point search started from reactant with energy -198.061185 eV.
[Dimer]       Step   Step Size      Delta E            ||Force||   Curvature    Torque    Angle   Rots
[Dimer]          1   0.2000000       0.4638          3.97480e+00     26.5438     4.257    4.556      0
[Dimer]          2   0.2000000       0.6088          3.42788e+00      2.1191     0.277    3.717      1
[Dimer]          3   0.2000000       0.4891          1.18510e+00     -3.1435     0.301    2.726      1
[Dimer]          4   0.2000000       0.6477          1.22159e+00     -5.2821     0.331    1.791      1
[Dimer]          5   0.0997361       0.6341          4.08589e-01     -0.5961     0.123    1.888      3
[Dimer]          6   0.2000000       0.6875          5.58552e-01     -1.2382     1.238    3.415      1
[Dimer]          7   0.0348550       0.6835          2.27125e-01     -0.0292     0.022    0.194      2
[Dimer]          8   0.2000000       0.7039          4.77129e-01     -0.6713     0.361    1.026      1
[Dimer]          9   0.0296088       0.6996          1.53412e-01     -3.0920     0.042    0.169      1
[Dimer]         10   0.0410053       0.7011          1.33410e-02     -3.5172     0.096    0.778      0
[Dimer]         11   0.0009198       0.7011          1.34548e-02     -2.5863     0.955    2.679      1
[Dimer]         12   0.0029160       0.7011          1.03935e-02     -2.5951     0.021    0.030      0
[Dimer]         13   0.0013736       0.7011          1.40443e-04     -2.5149     0.047    0.532      0

Starting Minimization 1
[Matter]       Iter       Step size           ||Force||         Energy
[Matter]          0     0.00000e+00         1.02698e+00     -197.43969
[Matter]          1     2.00000e-01         1.57497e+00     -197.67024
[Matter]          2     1.93294e-01         1.28880e+00     -197.81700
[Matter]          3     9.95158e-02         1.72843e-01     -197.86009
[Matter]          4     1.48633e-02         1.88274e-01     -197.86123
[Matter]          5     1.12243e-02         3.56542e-02     -197.86220
[Matter]          6     3.67565e-03         4.56136e-04     -197.86226

Starting Minimization 2
[Matter]       Iter       Step size           ||Force||         Energy
[Matter]          0     0.00000e+00         4.28164e-01     -197.38665
[Matter]          1     3.15624e-02         2.81167e-01     -197.39343
[Matter]          2     2.00000e-01         4.15110e-01     -197.45026
[Matter]          3     2.00000e-01         1.58785e+00     -197.55546
[Matter]          4     2.00000e-01         2.33981e+00     -197.72738
[Matter]          5     2.00000e-01         2.21108e+00     -197.95228
[Matter]          6     1.01327e-01         4.54532e-01     -198.05357
[Matter]          7     2.96804e-02         4.80029e-01     -198.05700
[Matter]          8     1.66887e-02         4.94078e-02     -198.06102
[Matter]          9     6.69872e-03         9.18341e-03     -198.06118
[Matter]         10     3.41145e-04         1.00570e-04     -198.06119
[Prefactor] including all atoms that make up 90.000% of the motion
[Prefactor] sum of atom distances moved 1.0222
[Prefactor] max moved atom distance: 1.0222
[Prefactor] including 1 atoms in the hessian (1 moved + 0 neighbors)
[Hessian] Hessian size: 3
[Hessian] writing hessian
[Hessian] calculating eigen values of the hessian
[Hessian] eigenvalue problem took 6.5088e-05 seconds
[Hessian] Hessian size: 3
[Hessian] writing hessian
[Hessian] calculating eigen values of the hessian
[Hessian] eigenvalue problem took 6.2943e-05 seconds
[Hessian] Hessian size: 3
[Hessian] writing hessian
[Hessian] calculating eigen values of the hessian
[Hessian] eigenvalue problem took 6.2943e-05 seconds
[Prefactor] reactant to product prefactor: 1.910e+13
[Prefactor] product to reactant prefactor: 1.707e+13
[Saddle Search] Final status: Success
 oFileName           1 results.dat
 oFileName           2 reactant.con
 oFileName           3 mode.dat
 oFileName           4 saddle.con
 oFileName           5 product.con

potential energy saddle                -1.973600780175
barrier reactant to product            7.011074698447e
force calls minimization                            37
random seed                                        100
potential type                              lib_client
potential energy product               -1.978622619839
barrier product to reactant            5.021839664717e
force calls prefactors                               9
prefactor product to reactant          1.706851657794e
total force calls                                   98
force calls saddle                                  52
prefactor reactant to product          1.910492569498e
displacement saddle distance           0.000000000000e
termination reason                                   0
potential energy reactant              -1.980611854873

>>> [Process Search] EON client successful termination!


Final calculations:

      Id   Success         Energy      DB
   --------------------------------------
       1        OK    -7.27861477     New
       2        OK    -7.27130447     New
       3        OK    -7.25284954   NewTS

---------------
States Database
---------------

        Id        Energy(a.u.)         RE(eV)   RE(kcal/mol)    Counts   TS
     ----------------------------------------------------------------------
         1           -7.278615        0.00000         0.0000         1    F
         2           -7.271304        0.19892         4.5873         1    F
         3           -7.252850        0.70111        16.1679         1    T 1-->2

Number of configurations                             3
Energy range (a.u.)                           0.025765
Energy range (eV)                              0.70111
Energy range (kcal/mol)                        16.1679


EON client 2/150
----------------

 Next seed state =            1
 
Minimizing initial structure
[Matter]       Iter       Step size           ||Force||         Energy
[Matter]          0     0.00000e+00         3.49572e-04     -198.06119
[Matter]          0     0.00000e+00         3.49572e-04     -198.06119
Saddle point search started from reactant with energy -198.061186 eV.
[Dimer]       Step   Step Size      Delta E            ||Force||   Curvature    Torque    Angle   Rots
[Dimer]          1   0.2000000       0.1435          1.39825e+00      7.2379     0.167    0.662      1
[Dimer]          2   0.2000000       0.4752          2.10387e+00      5.2661     0.372    2.019      1
[Dimer]          3   0.2000000       0.6449          1.47445e+00     -1.0203     0.037    0.350      2
[Dimer]          4   0.2000000       0.6656          7.96894e-01     -3.2270     0.441    3.751      1
[Dimer]          5   0.0702202       0.6542          5.76900e-01     -0.4578     0.104    1.470      2
[Dimer]          6   0.1674066       0.6662          3.01474e-01     -1.1678     0.517    1.402      1
[Dimer]          7   0.2000000       0.7106          3.72510e-01     -0.1813     0.021    3.213      1
[Dimer]          8   0.0460225       0.7075          2.36245e-01     -2.1831     0.030    0.159      1
[Dimer]          9   0.0596441       0.6994          1.11998e-01     -2.5647     0.899    2.371      1
[Dimer]         10   0.0150276       0.6998          9.10089e-02     -3.2337     0.568    1.416      1
[Dimer]         11   0.0165022       0.7002          2.76791e-02     -2.8354     0.214   -1.989      0
[Dimer]         12   0.0063032       0.7002          2.34068e-02     -2.6268     0.529    1.521      1
[Dimer]         13   0.0027288       0.7002          5.22878e-03     -2.4752     0.098    1.083      0
[Dimer]         14   0.0014457       0.7002          3.03500e-03     -2.4680     0.132    1.531      0
[Dimer]         15   0.0002726       0.7002          1.45107e-03     -2.4759     0.119    1.374      0
[Dimer]         16   0.0004371       0.7002          4.26221e-04     -2.4839     0.114    1.312      0

Starting Minimization 1
[Matter]       Iter       Step size           ||Force||         Energy
[Matter]          0     0.00000e+00         1.02353e+00     -197.44051
[Matter]          1     2.00000e-01         1.56781e+00     -197.67139
[Matter]          2     1.93727e-01         1.28267e+00     -197.81788
[Matter]          3     9.82171e-02         1.70710e-01     -197.86032
[Matter]          4     1.51021e-02         1.83096e-01     -197.86148
[Matter]          5     1.09320e-02         3.20250e-02     -197.86240
[Matter]          6     3.28101e-03         3.84678e-04     -197.86245

Starting Minimization 2
[Matter]       Iter       Step size           ||Force||         Energy
[Matter]          0     0.00000e+00         4.32315e-01     -197.38728
[Matter]          1     3.14852e-02         2.77888e-01     -197.39410
[Matter]          2     2.00000e-01         4.14012e-01     -197.45046
[Matter]          3     2.00000e-01         1.60798e+00     -197.55192
[Matter]          4     2.00000e-01         2.34801e+00     -197.71895
[Matter]          5     2.00000e-01         2.33268e+00     -197.93839
[Matter]          6     1.09667e-01         5.24356e-01     -198.05193
[Matter]          7     2.63057e-02         5.88723e-01     -198.05476
[Matter]          8     2.00627e-02         8.11747e-02     -198.06074
[Matter]          9     1.09408e-02         1.96553e-02     -198.06118
[Matter]         10     7.33458e-04         2.23199e-04     -198.06119
[Prefactor] including all atoms that make up 90.000% of the motion
[Prefactor] sum of atom distances moved 1.0224
[Prefactor] max moved atom distance: 1.0224
[Prefactor] including 1 atoms in the hessian (1 moved + 0 neighbors)
[Hessian] Hessian size: 3
[Hessian] writing hessian
[Hessian] calculating eigen values of the hessian
[Hessian] eigenvalue problem took 6.9857e-05 seconds
[Hessian] Hessian size: 3
[Hessian] writing hessian
[Hessian] calculating eigen values of the hessian
[Hessian] eigenvalue problem took 7.0095e-05 seconds
[Hessian] Hessian size: 3
[Hessian] writing hessian
[Hessian] calculating eigen values of the hessian
[Hessian] eigenvalue problem took 6.1989e-05 seconds
[Prefactor] reactant to product prefactor: 1.911e+13
[Prefactor] product to reactant prefactor: 1.707e+13
[Saddle Search] Final status: Success
 oFileName           1 results.dat
 oFileName           2 reactant.con
 oFileName           3 mode.dat
 oFileName           4 saddle.con
 oFileName           5 product.con

potential energy saddle                -1.973609660387
barrier reactant to product            7.002194616540e
force calls minimization                            35
random seed                                        101
potential type                              lib_client
potential energy product               -1.978624480410
barrier product to reactant            5.014820023810e
force calls prefactors                               9
prefactor product to reactant          1.706723549657e
total force calls                                  204
force calls saddle                                  62
prefactor reactant to product          1.911394052339e
displacement saddle distance           0.000000000000e
termination reason                                   0
potential energy reactant              -1.980611855003

>>> [Process Search] EON client successful termination!


Final calculations:

      Id   Success         Energy      DB
   --------------------------------------
       1        OK    -7.27861476     Old
       2        OK    -7.27131131     New
       3        OK    -7.25288218   NewTS

---------------
States Database
---------------

        Id        Energy(a.u.)         RE(eV)   RE(kcal/mol)    Counts   TS
     ----------------------------------------------------------------------
         1           -7.278615        0.00000         0.0000         2    F
         2           -7.271311        0.19874         4.5830         1    F
         3           -7.271304        0.19892         4.5873         1    F
         4           -7.252882        0.70022        16.1474         1    T 1-->2
         5           -7.252850        0.70111        16.1679         1    T 1-->3

Number of configurations                             5
Energy range (a.u.)                           0.025765
Energy range (eV)                              0.70111
Energy range (kcal/mol)                        16.1679


EON client 3/150
----------------

 Next seed state =            2
 
Minimizing initial structure
[Matter]       Iter       Step size           ||Force||         Energy
[Matter]          0     0.00000e+00         3.84781e-04     -197.86245
[Matter]          0     0.00000e+00         3.84781e-04     -197.86245
Saddle point search started from reactant with energy -197.862448 eV.
[Dimer]       Step   Step Size      Delta E            ||Force||   Curvature    Torque    Angle   Rots
[Dimer]          1   0.2000000       0.1390          1.38807e+00      6.9763     0.150    0.613      1
[Dimer]          2   0.2000000       0.4459          2.06006e+00      4.8294     0.210    1.212      1
[Dimer]          3   0.2000000       0.7108          1.89432e+00      0.3329     0.031    1.623      2
[Dimer]          4   0.1390070       0.6854          1.21696e+00     -5.6431     0.746    3.738      1
[Dimer]          5   0.2000000       0.5292          4.48455e-01     -2.2617     1.571    4.806      1
[Dimer]          6   0.0439847       0.5205          4.94834e-01     -2.4180     0.200    2.363      0
[Dimer]          7   0.0669592       0.5053          2.63404e-01     -1.9795     0.229    3.300      0
[Dimer]          8   0.0410853       0.5016          2.64213e-02     -2.8949     0.486    4.766      0
[Dimer]          9   0.0023612       0.5016          4.48665e-03     -2.6916     0.478    1.518      1
[Dimer]         10   0.0015523       0.5016          1.64015e-03     -2.6691     0.134    1.250      0
[Dimer]         11   0.0001852       0.5016          1.31508e-03     -2.6976     0.120    1.268      0
[Dimer]         12   0.0002802       0.5016          1.39696e-04     -2.7029     0.118    1.255      0

Starting Minimization 1
[Matter]       Iter       Step size           ||Force||         Energy
[Matter]          0     0.00000e+00         4.57631e-01     -197.38647
[Matter]          1     3.19829e-02         2.72167e-01     -197.39380
[Matter]          2     2.00000e-01         4.19123e-01     -197.44989
[Matter]          3     2.00000e-01         1.65166e+00     -197.54563
[Matter]          4     2.00000e-01         2.35256e+00     -197.70697
[Matter]          5     2.00000e-01         2.48669e+00     -197.91845
[Matter]          6     1.21375e-01         6.41903e-01     -198.04864
[Matter]          7     1.88049e-02         7.37761e-01     -198.05025
[Matter]          8     2.45559e-02         1.43504e-01     -198.05957
[Matter]          9     1.92519e-02         4.10028e-02     -198.06094
[Matter]         10     1.54386e-03         4.25548e-04     -198.06097

Starting Minimization 2
[Matter]       Iter       Step size           ||Force||         Energy
[Matter]          0     0.00000e+00         1.01613e+00     -197.44108
[Matter]          1     2.00000e-01         1.52812e+00     -197.67704
[Matter]          2     1.98847e-01         1.22886e+00     -197.82381
[Matter]          3     8.62840e-02         1.57709e-01     -197.86067
[Matter]          4     1.69851e-02         1.34293e-01     -197.86198
[Matter]          5     8.09788e-03         6.98461e-03     -197.86245
[Matter]          6     6.37942e-04         6.99865e-04     -197.86245
[Prefactor] including all atoms that make up 90.000% of the motion
[Prefactor] sum of atom distances moved 1.0212
[Prefactor] max moved atom distance: 1.0212
[Prefactor] including 1 atoms in the hessian (1 moved + 0 neighbors)
[Hessian] Hessian size: 3
[Hessian] writing hessian
[Hessian] calculating eigen values of the hessian
[Hessian] eigenvalue problem took 1.9097e-04 seconds
[Hessian] Hessian size: 3
[Hessian] writing hessian
[Hessian] calculating eigen values of the hessian
[Hessian] eigenvalue problem took 1.4615e-04 seconds
[Hessian] Hessian size: 3
[Hessian] writing hessian
[Hessian] calculating eigen values of the hessian
[Hessian] eigenvalue problem took 1.2016e-04 seconds
[Prefactor] reactant to product prefactor: 1.706e+13
[Prefactor] product to reactant prefactor: 1.910e+13
[Saddle Search] Final status: Success
 oFileName           1 results.dat
 oFileName           2 reactant.con
 oFileName           3 mode.dat
 oFileName           4 saddle.con
 oFileName           5 product.con

potential energy saddle                -1.973608883069
barrier reactant to product            5.015597933916e
force calls minimization                            35
random seed                                        102
potential type                              lib_client
potential energy product               -1.980609721170
barrier product to reactant            7.000838100856e
force calls prefactors                               9
prefactor product to reactant          1.910402162712e
total force calls                                  292
force calls saddle                                  44
prefactor reactant to product          1.705784907415e
displacement saddle distance           0.000000000000e
termination reason                                   0
potential energy reactant              -1.978624481003

>>> [Process Search] EON client successful termination!


Final calculations:

      Id   Success         Energy      DB
   --------------------------------------
       1        OK    -7.27131130     Old
       2        OK    -7.27860694     New
       3        OK    -7.25287932   NewTS

---------------
States Database
---------------

        Id        Energy(a.u.)         RE(eV)   RE(kcal/mol)    Counts   TS
     ----------------------------------------------------------------------
         1           -7.278615        0.00000         0.0000         2    F
         2           -7.278607        0.00021         0.0049         1    F
         3           -7.271311        0.19874         4.5830         2    F
         4           -7.271304        0.19892         4.5873         1    F
         5           -7.252882        0.70022        16.1474         1    T 1-->3
         6           -7.252879        0.70030        16.1492         1    T 3-->2
         7           -7.252850        0.70111        16.1679         1    T 1-->4

Number of configurations                             7
Energy range (a.u.)                           0.025765
Energy range (eV)                              0.70111
Energy range (kcal/mol)                        16.1679


EON client 4/150
----------------

 Next seed state =            3
 
Minimizing initial structure
[Matter]       Iter       Step size           ||Force||         Energy
[Matter]          0     0.00000e+00         3.84781e-04     -197.86245
[Matter]          0     0.00000e+00         3.84781e-04     -197.86245
Saddle point search started from reactant with energy -197.862448 eV.
[Dimer]       Step   Step Size      Delta E            ||Force||   Curvature    Torque    Angle   Rots
[Dimer]          1   0.2000000       0.1332          1.31528e+00      6.9360     0.099    0.401      1
[Dimer]          2   0.2000000       0.4323          1.78292e+00      5.0007     0.149    0.745      1
[Dimer]          3   0.1508777       0.4955          9.90235e-01     -5.2216     0.741    3.981      1
[Dimer]          4   0.1451439       0.5132          5.07858e-01     -4.7954     0.759    3.873      1
[Dimer]          5   0.0310498       0.5054          1.68302e-01     -1.8578     0.328    4.894      1
[Dimer]          6   0.0484843       0.5016          6.53016e-03     -2.6718     0.513    1.911      1
[Dimer]          7   0.0005848       0.5016          4.43999e-03     -2.5064     0.328    2.706      0
[Dimer]          8   0.0012863       0.5016          5.05732e-04     -2.5078     0.334    3.795      0

Starting Minimization 1
[Matter]       Iter       Step size           ||Force||         Energy
[Matter]          0     0.00000e+00         1.01435e+00     -197.44100
[Matter]          1     2.00000e-01         1.52220e+00     -197.67771
[Matter]          2     2.00000e-01         1.21907e+00     -197.82480
[Matter]          3     8.42718e-02         1.56596e-01     -197.86071
[Matter]          4     1.72214e-02         1.26686e-01     -197.86204
[Matter]          5     7.63113e-03         4.68725e-03     -197.86245
[Matter]          6     4.06240e-04         7.98318e-04     -197.86245

Starting Minimization 2
[Matter]       Iter       Step size           ||Force||         Energy
[Matter]          0     0.00000e+00         4.62628e-01     -197.38628
[Matter]          1     3.21588e-02         2.71964e-01     -197.39373
[Matter]          2     2.00000e-01         4.19801e-01     -197.44949
[Matter]          3     2.00000e-01         1.65354e+00     -197.54335
[Matter]          4     2.00000e-01         2.35536e+00     -197.70195
[Matter]          5     2.00000e-01         2.54650e+00     -197.91017
[Matter]          6     1.26290e-01         6.97251e-01     -198.04709
[Matter]          7     1.46045e-02         7.90259e-01     -198.04813
[Matter]          8     2.63160e-02         1.74375e-01     -198.05890
[Matter]          9     2.33948e-02         5.05930e-02     -198.06093
[Matter]         10     1.91908e-03         4.79929e-04     -198.06097
[Prefactor] including all atoms that make up 90.000% of the motion
[Prefactor] sum of atom distances moved 1.0211
[Prefactor] max moved atom distance: 1.0211
[Prefactor] including 1 atoms in the hessian (1 moved + 0 neighbors)
[Hessian] Hessian size: 3
[Hessian] writing hessian
[Hessian] calculating eigen values of the hessian
[Hessian] eigenvalue problem took 5.6982e-05 seconds
[Hessian] Hessian size: 3
[Hessian] writing hessian
[Hessian] calculating eigen values of the hessian
[Hessian] eigenvalue problem took 7.7009e-05 seconds
[Hessian] Hessian size: 3
[Hessian] writing hessian
[Hessian] calculating eigen values of the hessian
[Hessian] eigenvalue problem took 7.2002e-05 seconds
[Prefactor] reactant to product prefactor: 1.706e+13
[Prefactor] product to reactant prefactor: 1.910e+13
[Saddle Search] Final status: Success
 oFileName           1 results.dat
 oFileName           2 reactant.con
 oFileName           3 mode.dat
 oFileName           4 saddle.con
 oFileName           5 product.con

potential energy saddle                -1.973608882708
barrier reactant to product            5.015596570641e
force calls minimization                            35
random seed                                        103
potential type                              lib_client
potential energy product               -1.980609721143
barrier product to reactant            7.000838435019e
force calls prefactors                               9
prefactor product to reactant          1.910417051900e
total force calls                                  367
force calls saddle                                  31
prefactor reactant to product          1.705807383049e
displacement saddle distance           0.000000000000e
termination reason                                   0
potential energy reactant              -1.978624479278

>>> [Process Search] EON client successful termination!


Final calculations:

      Id   Success         Energy      DB
   --------------------------------------
       1        OK    -7.27131130     Old
       2        OK    -7.27860694     Old
       3        OK    -7.25287933   OldTS

---------------
States Database
---------------

        Id        Energy(a.u.)         RE(eV)   RE(kcal/mol)    Counts   TS
     ----------------------------------------------------------------------
         1           -7.278615        0.00000         0.0000         2    F
         2           -7.278607        0.00021         0.0049         2    F
         3           -7.271311        0.19874         4.5830         3    F
         4           -7.271304        0.19892         4.5873         1    F
         5           -7.252882        0.70022        16.1474         1    T 1-->3
         6           -7.252879        0.70030        16.1492         2    T 3-->2
         7           -7.252850        0.70111        16.1679         1    T 1-->4

Number of configurations                             7
Energy range (a.u.)                           0.025765
Energy range (eV)                              0.70111
Energy range (kcal/mol)                        16.1679


EON client 5/150
----------------

 Next seed state =            4
 
Minimizing initial structure
[Matter]       Iter       Step size           ||Force||         Energy
[Matter]          0     0.00000e+00         4.56079e-04     -197.86226
[Matter]          0     0.00000e+00         4.56079e-04     -197.86226
Saddle point search started from reactant with energy -197.862262 eV.
[Dimer]       Step   Step Size      Delta E            ||Force||   Curvature    Torque    Angle   Rots
[Dimer]          1   0.2000000       0.1377          1.37857e+00      6.9806     0.041    0.157      1
[Dimer]          2   0.2000000       0.4462          2.04404e+00      4.9595     0.278    1.590      1
[Dimer]          3   0.1968986       0.5753          1.38480e+00     -1.0459     0.047    0.659      2
[Dimer]          4   0.2000000       0.5476          9.46766e-01     -4.2617     0.186    1.245      1
[Dimer]          5   0.0641243       0.5186          3.99106e-01     -0.9948     0.153    4.336      1
[Dimer]          6   0.1039242       0.5016          8.20985e-02     -2.2969     0.432    2.472      0
[Dimer]          7   0.0051226       0.5015          2.72143e-02     -2.5405     0.864    2.437      1
[Dimer]          8   0.0103660       0.5017          3.87991e-03     -2.4708     0.033    0.343      0
[Dimer]          9   0.0003016       0.5017          1.98662e-03     -2.7059     0.237    2.498      0
[Dimer]         10   0.0004946       0.5017          2.44507e-04     -2.7026     0.238    2.515      0

Starting Minimization 1
[Matter]       Iter       Step size           ||Force||         Energy
[Matter]          0     0.00000e+00         4.16397e-01     -197.38724
[Matter]          1     3.12672e-02         2.82134e-01     -197.39377
[Matter]          2     2.00000e-01         4.13446e-01     -197.45044
[Matter]          3     2.00000e-01         1.57578e+00     -197.55747
[Matter]          4     2.00000e-01         2.33329e+00     -197.73222
[Matter]          5     2.00000e-01         2.13438e+00     -197.95970
[Matter]          6     9.63582e-02         4.16262e-01     -198.05363
[Matter]          7     3.06537e-02         4.17688e-01     -198.05723
[Matter]          8     1.46807e-02         3.55814e-02     -198.06029
[Matter]          9     4.84267e-03         5.04798e-03     -198.06037
[Matter]         10     1.87108e-04         5.38516e-05     -198.06037

Starting Minimization 2
[Matter]       Iter       Step size           ||Force||         Energy
[Matter]          0     0.00000e+00         1.02819e+00     -197.43967
[Matter]          1     2.00000e-01         1.59285e+00     -197.66758
[Matter]          2     1.91574e-01         1.30905e+00     -197.81447
[Matter]          3     1.04683e-01         1.82660e-01     -197.85985
[Matter]          4     1.36840e-02         2.09640e-01     -197.86089
[Matter]          5     9.79692e-03         7.69076e-02     -197.86190
[Matter]          6     9.93518e-03         1.35311e-04     -197.86226
[Prefactor] including all atoms that make up 90.000% of the motion
[Prefactor] sum of atom distances moved 1.0218
[Prefactor] max moved atom distance: 1.0218
[Prefactor] including 1 atoms in the hessian (1 moved + 0 neighbors)
[Hessian] Hessian size: 3
[Hessian] writing hessian
[Hessian] calculating eigen values of the hessian
[Hessian] eigenvalue problem took 5.7936e-05 seconds
[Hessian] Hessian size: 3
[Hessian] writing hessian
[Hessian] calculating eigen values of the hessian
[Hessian] eigenvalue problem took 6.5088e-05 seconds
[Hessian] Hessian size: 3
[Hessian] writing hessian
[Hessian] calculating eigen values of the hessian
[Hessian] eigenvalue problem took 6.8903e-05 seconds
[Prefactor] reactant to product prefactor: 1.706e+13
[Prefactor] product to reactant prefactor: 1.909e+13
[Saddle Search] Final status: Success
 oFileName           1 results.dat
 oFileName           2 reactant.con
 oFileName           3 mode.dat
 oFileName           4 saddle.con
 oFileName           5 product.con

potential energy saddle                -1.973605896544
barrier reactant to product            5.016721769688e
force calls minimization                            35
random seed                                        104
potential type                              lib_client
potential energy product               -1.980603733834
barrier product to reactant            6.997837289705e
force calls prefactors                               9
prefactor product to reactant          1.909337920548e
total force calls                                  449
force calls saddle                                  38
prefactor reactant to product          1.706071859971e
displacement saddle distance           0.000000000000e
termination reason                                   0
potential energy reactant              -1.978622618314

>>> [Process Search] EON client successful termination!


Final calculations:

      Id   Success         Energy      DB
   --------------------------------------
       1        OK    -7.27130446     Old
       2        OK    -7.27858493     New
       3        OK    -7.25286835   NewTS

---------------
States Database
---------------

        Id        Energy(a.u.)         RE(eV)   RE(kcal/mol)    Counts   TS
     ----------------------------------------------------------------------
         1           -7.278615        0.00000         0.0000         2    F
         2           -7.278607        0.00021         0.0049         2    F
         3           -7.278585        0.00081         0.0187         1    F
         4           -7.271311        0.19874         4.5830         3    F
         5           -7.271304        0.19892         4.5873         2    F
         6           -7.252882        0.70022        16.1474         1    T 1-->4
         7           -7.252879        0.70030        16.1492         2    T 4-->2
         8           -7.252868        0.70060        16.1561         1    T 5-->3
         9           -7.252850        0.70111        16.1679         1    T 1-->5

Number of configurations                             9
Energy range (a.u.)                           0.025765
Energy range (eV)                              0.70111
Energy range (kcal/mol)                        16.1679


EON client 6/150
----------------

 Next seed state =            5
 
Minimizing initial structure
[Matter]       Iter       Step size           ||Force||         Energy
[Matter]          0     0.00000e+00         4.56078e-04     -197.86226
[Matter]          0     0.00000e+00         4.56078e-04     -197.86226
Saddle point search started from reactant with energy -197.862262 eV.
[Dimer]       Step   Step Size      Delta E            ||Force||   Curvature    Torque    Angle   Rots
[Dimer]          1   0.2000000       0.1383          1.34144e+00      6.9594     0.224    0.919      1
[Dimer]          2   0.2000000       0.4404          1.94452e+00      4.4851     0.229    1.399      1
[Dimer]          3   0.2000000       0.5990          1.40960e+00     -0.3601     0.079    0.236      3
[Dimer]          4   0.2000000       0.5482          7.38931e-01     -4.0531     0.317    2.222      1
[Dimer]          5   0.0633708       0.5280          5.00737e-01     -1.3081     0.144    3.079      1
[Dimer]          6   0.1099199       0.5019          1.07217e-01     -2.8239     0.876    2.247      1
[Dimer]          7   0.0121536       0.5019          7.41127e-02     -2.9024     0.564    1.435      1
[Dimer]          8   0.0155037       0.5022          1.82080e-02     -2.9390     0.075   -0.526      0
[Dimer]          9   0.0060868       0.5022          1.21178e-03     -2.5873     0.374    4.113      0
[Dimer]         10   0.0001285       0.5022          9.71105e-04     -2.5069     0.470    1.363      1

Starting Minimization 1
[Matter]       Iter       Step size           ||Force||         Energy
[Matter]          0     0.00000e+00         1.03258e+00     -197.43938
[Matter]          1     2.00000e-01         1.59877e+00     -197.66685
[Matter]          2     1.90944e-01         1.31421e+00     -197.81376
[Matter]          3     1.06140e-01         1.85189e-01     -197.85979
[Matter]          4     1.32172e-02         2.14938e-01     -197.86078
[Matter]          5     1.01652e-02         8.15345e-02     -197.86186
[Matter]          6     1.04507e-02         1.87528e-04     -197.86226

Starting Minimization 2
[Matter]       Iter       Step size           ||Force||         Energy
[Matter]          0     0.00000e+00         4.13725e-01     -197.38697
[Matter]          1     3.14168e-02         2.85462e-01     -197.39348
[Matter]          2     2.00000e-01         4.13324e-01     -197.45054
[Matter]          3     2.00000e-01         1.55638e+00     -197.56020
[Matter]          4     2.00000e-01         2.32520e+00     -197.73855
[Matter]          5     2.00000e-01         2.04205e+00     -197.96967
[Matter]          6     9.07108e-02         3.79270e-01     -198.05519
[Matter]          7     3.15853e-02         3.52304e-01     -198.05896
[Matter]          8     1.25070e-02         2.33330e-02     -198.06115
[Matter]          9     3.18437e-03         2.03218e-03     -198.06119
[Matter]         10     7.51418e-05         2.23550e-05     -198.06119
[Prefactor] including all atoms that make up 90.000% of the motion
[Prefactor] sum of atom distances moved 1.0224
[Prefactor] max moved atom distance: 1.0224
[Prefactor] including 1 atoms in the hessian (1 moved + 0 neighbors)
[Hessian] Hessian size: 3
[Hessian] writing hessian
[Hessian] calculating eigen values of the hessian
[Hessian] eigenvalue problem took 5.5075e-05 seconds
[Hessian] Hessian size: 3
[Hessian] writing hessian
[Hessian] calculating eigen values of the hessian
[Hessian] eigenvalue problem took 6.1989e-05 seconds
[Hessian] Hessian size: 3
[Hessian] writing hessian
[Hessian] calculating eigen values of the hessian
[Hessian] eigenvalue problem took 6.7949e-05 seconds
[Prefactor] reactant to product prefactor: 1.707e+13
[Prefactor] product to reactant prefactor: 1.911e+13
[Saddle Search] Final status: Success
 oFileName           1 results.dat
 oFileName           2 reactant.con
 oFileName           3 mode.dat
 oFileName           4 saddle.con
 oFileName           5 product.con

potential energy saddle                -1.973600778301
barrier reactant to product            5.021840560561e
force calls minimization                            35
random seed                                        105
potential type                              lib_client
potential energy product               -1.980611852990
barrier product to reactant            7.011074689109e
force calls prefactors                               9
prefactor product to reactant          1.910562999725e
total force calls                                  534
force calls saddle                                  41
prefactor reactant to product          1.706943321419e
displacement saddle distance           0.000000000000e
termination reason                                   0
potential energy reactant              -1.978622618862

>>> [Process Search] EON client successful termination!


Final calculations:

      Id   Success         Energy      DB
   --------------------------------------
       1        OK    -7.27130446     Old
       2        OK    -7.27861476     Old
       3        OK    -7.25284953   OldTS

---------------
States Database
---------------

        Id        Energy(a.u.)         RE(eV)   RE(kcal/mol)    Counts   TS
     ----------------------------------------------------------------------
         1           -7.278615        0.00000         0.0000         3    F
         2           -7.278607        0.00021         0.0049         2    F
         3           -7.278585        0.00081         0.0187         1    F
         4           -7.271311        0.19874         4.5830         3    F
         5           -7.271304        0.19892         4.5873         3    F
         6           -7.252882        0.70022        16.1474         1    T 1-->4
         7           -7.252879        0.70030        16.1492         2    T 4-->2
         8           -7.252868        0.70060        16.1561         1    T 5-->3
         9           -7.252850        0.70111        16.1679         2    T 1-->5

Number of configurations                             9
Energy range (a.u.)                           0.025765
Energy range (eV)                              0.70111
Energy range (kcal/mol)                        16.1679


EON client 7/150
----------------

 Next seed state =            0
 
Minimizing initial structure
[Matter]       Iter       Step size           ||Force||         Energy
[Matter]          0     0.00000e+00         1.06822e-03     -198.06119
[Matter]          1     4.44007e-05         3.49624e-04     -198.06119
Saddle point search started from reactant with energy -198.061185 eV.
[Dimer]       Step   Step Size      Delta E            ||Force||   Curvature    Torque    Angle   Rots
[Dimer]          1   0.2000000       0.1421          1.35415e+00      7.2023     0.117    0.464      1
[Dimer]          2   0.2000000       0.4713          2.00969e+00      5.2087     0.446    2.448      1
[Dimer]          3   0.2000000       0.6409          1.44681e+00     -1.6706     0.055    0.401      2
[Dimer]          4   0.2000000       0.6600          7.21960e-01     -3.0063     0.379    3.495      1
[Dimer]          5   0.0374033       0.6454          4.58723e-01     -0.4009     0.096    1.385      2
[Dimer]          6   0.1684755       0.6643          4.85710e-01     -1.1125     0.147    1.776      0
[Dimer]          7   0.2000000       0.7111          7.21995e-01      0.0373     0.018    0.283      2
[Dimer]          8   0.1708253       0.6848          5.88294e-01     -0.7265     0.018    0.715      1
[Dimer]          9   0.0067826       0.6812          5.41264e-01     -4.7021     0.056    0.146      1
[Dimer]         10   0.0581302       0.6963          3.47776e-01     -4.9303     0.148    0.860      0
[Dimer]         11   0.0457215       0.7001          1.14666e-01     -4.4211     0.951    2.541      1
[Dimer]         12   0.0195108       0.7005          2.81660e-02     -2.8708     1.012    2.821      1
[Dimer]         13   0.0041225       0.7005          3.17420e-03     -2.6087     0.374    4.082      0
[Dimer]         14   0.0004373       0.7005          9.46984e-04     -2.4969     0.469    1.361      1

Starting Minimization 1
[Matter]       Iter       Step size           ||Force||         Energy
[Matter]          0     0.00000e+00         1.02872e+00     -197.43952
[Matter]          1     2.00000e-01         1.59872e+00     -197.66636
[Matter]          2     1.90976e-01         1.31636e+00     -197.81325
[Matter]          3     1.06709e-01         1.86657e-01     -197.85950
[Matter]          4     1.31531e-02         2.17219e-01     -197.86049
[Matter]          5     1.03214e-02         8.31656e-02     -197.86160
[Matter]          6     1.06499e-02         4.44247e-04     -197.86202

Starting Minimization 2
[Matter]       Iter       Step size           ||Force||         Energy
[Matter]          0     0.00000e+00         4.14329e-01     -197.38749
[Matter]          1     3.13472e-02         2.84119e-01     -197.39400
[Matter]          2     2.00000e-01         4.13560e-01     -197.45091
[Matter]          3     2.00000e-01         1.56489e+00     -197.55973
[Matter]          4     2.00000e-01         2.32745e+00     -197.73717
[Matter]          5     2.00000e-01         2.06731e+00     -197.96724
[Matter]          6     9.22191e-02         3.88391e-01     -198.05502
[Matter]          7     3.13388e-02         3.69111e-01     -198.05874
[Matter]          8     1.30717e-02         2.62639e-02     -198.06114
[Matter]          9     3.58193e-03         2.68892e-03     -198.06119
[Matter]         10     9.94891e-05         2.86981e-05     -198.06119
[Prefactor] including all atoms that make up 90.000% of the motion
[Prefactor] sum of atom distances moved 1.0219
[Prefactor] max moved atom distance: 1.0219
[Prefactor] including 1 atoms in the hessian (1 moved + 0 neighbors)
[Hessian] Hessian size: 3
[Hessian] writing hessian
[Hessian] calculating eigen values of the hessian
[Hessian] eigenvalue problem took 6.5088e-05 seconds
[Hessian] Hessian size: 3
[Hessian] writing hessian
[Hessian] calculating eigen values of the hessian
[Hessian] eigenvalue problem took 7.0095e-05 seconds
[Hessian] Hessian size: 3
[Hessian] writing hessian
[Hessian] calculating eigen values of the hessian
[Hessian] eigenvalue problem took 6.3181e-05 seconds
[Prefactor] reactant to product prefactor: 1.912e+13
[Prefactor] product to reactant prefactor: 1.706e+13
[Saddle Search] Final status: Success
 oFileName           1 results.dat
 oFileName           2 reactant.con
 oFileName           3 mode.dat
 oFileName           4 saddle.con
 oFileName           5 product.con

potential energy saddle                -1.973606494696
barrier reactant to product            7.005359680029e
force calls minimization                            37
random seed                                        106
potential type                              lib_client
potential energy product               -1.978620163313
barrier product to reactant            5.013668617271e
force calls prefactors                               9
prefactor product to reactant          1.706120145643e
total force calls                                  637
force calls saddle                                  57
prefactor reactant to product          1.911625057171e
displacement saddle distance           0.000000000000e
termination reason                                   0
potential energy reactant              -1.980611854376

>>> [Process Search] EON client successful termination!


Final calculations:

      Id   Success         Energy      DB
   --------------------------------------
       1        OK    -7.27861477     Old
       2        OK    -7.27129545     New
       3        OK    -7.25287055   NewTS

---------------
States Database
---------------

        Id        Energy(a.u.)         RE(eV)   RE(kcal/mol)    Counts   TS
     ----------------------------------------------------------------------
         1           -7.278615        0.00000         0.0000         4    F
         2           -7.278607        0.00021         0.0049         2    F
         3           -7.278585        0.00081         0.0187         1    F
         4           -7.271311        0.19874         4.5830         3    F
         5           -7.271304        0.19892         4.5873         3    F
         6           -7.271295        0.19917         4.5929         1    F
         7           -7.252882        0.70022        16.1474         1    T 1-->4
         8           -7.252879        0.70030        16.1492         2    T 4-->2
         9           -7.252871        0.70054        16.1547         1    T 1-->6
        10           -7.252868        0.70060        16.1561         1    T 5-->3
        11           -7.252850        0.70111        16.1679         2    T 1-->5

Number of configurations                            11
Energy range (a.u.)                           0.025765
Energy range (eV)                              0.70111
Energy range (kcal/mol)                        16.1679


EON client 8/150
----------------

 Next seed state =            1
 
Minimizing initial structure
[Matter]       Iter       Step size           ||Force||         Energy
[Matter]          0     0.00000e+00         3.49571e-04     -198.06119
[Matter]          0     0.00000e+00         3.49571e-04     -198.06119
Saddle point search started from reactant with energy -198.061185 eV.
[Dimer]       Step   Step Size      Delta E            ||Force||   Curvature    Torque    Angle   Rots
[Dimer]          1   0.2000000       0.1408          1.33785e+00      7.2737     0.170    0.667      1
[Dimer]          2   0.2000000       0.4573          1.98789e+00      4.4493     0.037    0.051      1
[Dimer]          3   0.2000000       0.9010          2.76394e+00      3.2685     1.181    3.270      1
[Dimer]          4   0.2000000       0.6174          1.81335e+00     -1.1153     0.911    2.211      3
[Dimer]          5   0.2000000       0.6387          1.03075e+00     -3.4845     0.035    0.220      2
[Dimer]          6   0.1171241       0.6510          1.06468e+00     -3.8597     1.836    4.637      1
[Dimer]          7   0.2000000       0.6473          3.04885e-01     -1.0973     1.176    3.660      1
[Dimer]          8   0.0876805       0.6747          6.14023e-01     -0.5856     0.170    2.477      2
[Dimer]          9   0.2000000       0.7228          9.05444e-01      0.1863     1.270    3.881      1
[Dimer]         10   0.1063675       0.7131          8.97560e-01     -1.0968     0.022    0.239      1
[Dimer]         11   0.0549351       0.6963          2.08031e-01     -3.4520     0.043    0.101      1
[Dimer]         12   0.0486359       0.7010          4.37727e-02     -4.2763     0.308    2.060      0
[Dimer]         13   0.0035782       0.7010          2.71094e-02     -2.9119     1.458    3.840      1
[Dimer]         14   0.0077878       0.7011          4.66667e-03     -2.9206     0.075    0.441      0
[Dimer]         15   0.0003540       0.7011          7.78924e-04     -2.7167     0.262    2.754      0

Starting Minimization 1
[Matter]       Iter       Step size           ||Force||         Energy
[Matter]          0     0.00000e+00         4.94255e-01     -197.38488
[Matter]          1     3.30525e-02         2.67211e-01     -197.39305
[Matter]          2     2.00000e-01         4.21209e-01     -197.44903
[Matter]          3     1.81888e-01         1.55099e+00     -197.52485
[Matter]          4     1.97724e-01         2.36337e+00     -197.65052
[Matter]          5     2.00000e-01         3.06450e+00     -197.81890
[Matter]          6     1.82853e-01         1.83743e+00     -198.01153
[Matter]          7     3.41533e-02         5.65442e-01     -198.04780
[Matter]          8     5.27981e-02         4.84018e-02     -198.06112
[Matter]          9     2.46742e-03         1.46692e-02     -198.06117
[Matter]         10     1.61753e-03         1.00589e-04     -198.06119

Starting Minimization 2
[Matter]       Iter       Step size           ||Force||         Energy
[Matter]          0     0.00000e+00         1.01089e+00     -197.44149
[Matter]          1     2.00000e-01         1.47442e+00     -197.68445
[Matter]          2     2.00000e-01         1.08819e+00     -197.83282
[Matter]          3     6.92492e-02         8.83215e-02     -197.86170
[Matter]          4     8.98876e-03         8.87952e-02     -197.86206
[Matter]          5     4.80910e-03         1.14277e-02     -197.86226
[Matter]          6     1.21341e-03         1.50778e-03     -197.86226
[Matter]          7     6.92391e-05         1.62177e-04     -197.86226
[Prefactor] including all atoms that make up 90.000% of the motion
[Prefactor] sum of atom distances moved 1.0222
[Prefactor] max moved atom distance: 1.0222
[Prefactor] including 1 atoms in the hessian (1 moved + 0 neighbors)
[Hessian] Hessian size: 3
[Hessian] writing hessian
[Hessian] calculating eigen values of the hessian
[Hessian] eigenvalue problem took 6.3181e-05 seconds
[Hessian] Hessian size: 3
[Hessian] writing hessian
[Hessian] calculating eigen values of the hessian
[Hessian] eigenvalue problem took 6.9857e-05 seconds
[Hessian] Hessian size: 3
[Hessian] writing hessian
[Hessian] calculating eigen values of the hessian
[Hessian] eigenvalue problem took 8.2970e-05 seconds
[Prefactor] reactant to product prefactor: 1.910e+13
[Prefactor] product to reactant prefactor: 1.707e+13
[Saddle Search] Final status: Success
 oFileName           1 results.dat
 oFileName           2 reactant.con
 oFileName           3 mode.dat
 oFileName           4 saddle.con
 oFileName           5 product.con

potential energy saddle                -1.973600777830
barrier reactant to product            7.011074152426e
force calls minimization                            37
random seed                                        107
potential type                              lib_client
potential energy product               -1.978622618611
barrier product to reactant            5.021840781286e
force calls prefactors                               9
prefactor product to reactant          1.706712587998e
total force calls                                  745
force calls saddle                                  62
prefactor reactant to product          1.910485394690e
displacement saddle distance           0.000000000000e
termination reason                                   0
potential energy reactant              -1.980611851982

>>> [Process Search] EON client successful termination!


Final calculations:

      Id   Success         Energy      DB
   --------------------------------------
       1        OK    -7.27861476     Old
       2        OK    -7.27130446     Old
       3        OK    -7.25284953   OldTS

---------------
States Database
---------------

        Id        Energy(a.u.)         RE(eV)   RE(kcal/mol)    Counts   TS
     ----------------------------------------------------------------------
         1           -7.278615        0.00000         0.0000         5    F
         2           -7.278607        0.00021         0.0049         2    F
         3           -7.278585        0.00081         0.0187         1    F
         4           -7.271311        0.19874         4.5830         3    F
         5           -7.271304        0.19892         4.5873         4    F
         6           -7.271295        0.19917         4.5929         1    F
         7           -7.252882        0.70022        16.1474         1    T 1-->4
         8           -7.252879        0.70030        16.1492         2    T 4-->2
         9           -7.252871        0.70054        16.1547         1    T 1-->6
        10           -7.252868        0.70060        16.1561         1    T 5-->3
        11           -7.252850        0.70111        16.1679         3    T 1-->5

Number of configurations                            11
Energy range (a.u.)                           0.025765
Energy range (eV)                              0.70111
Energy range (kcal/mol)                        16.1679


EON client 9/150
----------------

 Next seed state =            2
 
Minimizing initial structure
[Matter]       Iter       Step size           ||Force||         Energy
[Matter]          0     0.00000e+00         4.25775e-04     -198.06097
[Matter]          0     0.00000e+00         4.25775e-04     -198.06097
Saddle point search started from reactant with energy -198.060972 eV.
[Dimer]       Step   Step Size      Delta E            ||Force||   Curvature    Torque    Angle   Rots
[Dimer]          1   0.2000000       0.1460          1.38261e+00      7.2857     0.163    0.638      1
[Dimer]          2   0.2000000       0.4753          1.94258e+00      5.3735     0.247    1.301      1
[Dimer]          3   0.1777627       0.5962          1.28794e+00     -3.6555     0.073    0.339      2
[Dimer]          4   0.2000000       0.6477          6.47028e-01     -3.2731     0.901    4.105      1
[Dimer]          5   0.0301275       0.6380          3.41721e-01     -0.3072     0.210    3.268      2
[Dimer]          6   0.2000000       0.6846          4.89872e-01     -0.8886     0.063    1.919      0
[Dimer]          7   0.1254077       0.7088          3.85330e-01     -0.0502     0.031    0.459      2
[Dimer]          8   0.0863904       0.7063          2.36110e-01     -1.7405     0.027    0.305      1
[Dimer]          9   0.0475533       0.6987          1.64500e-01     -2.9165     1.880    4.985      1
[Dimer]         10   0.0284159       0.7001          1.27803e-01     -3.5707     0.524    4.059      0
[Dimer]         11   0.0169940       0.7005          4.57964e-02     -2.8831     0.058    0.572      0
[Dimer]         12   0.0102603       0.7006          2.69127e-02     -2.7428     0.273    2.841      0
[Dimer]         13   0.0037016       0.7005          1.42089e-02     -2.4727     0.509    1.480      1
[Dimer]         14   0.0027015       0.7005          8.26859e-03     -2.4598     0.038    0.405      0
[Dimer]         15   0.0011576       0.7005          5.11971e-03     -2.4400     0.041    0.477      0
[Dimer]         16   0.0011247       0.7005          3.25213e-03     -2.4644     0.035    0.403      0
[Dimer]         17   0.0005132       0.7005          1.95348e-03     -2.4796     0.039    0.446      0
[Dimer]         18   0.0003605       0.7005          1.05375e-03     -2.4936     0.045    0.519      0
[Dimer]         19   0.0001435       0.7005          5.55200e-04     -2.4951     0.048    0.551      0

Starting Minimization 1
[Matter]       Iter       Step size           ||Force||         Energy
[Matter]          0     0.00000e+00         1.03097e+00     -197.43952
[Matter]          1     2.00000e-01         1.60138e+00     -197.66692
[Matter]          2     1.91626e-01         1.31753e+00     -197.81452
[Matter]          3     1.06175e-01         1.86461e-01     -197.86064
[Matter]          4     1.36057e-02         2.15276e-01     -197.86169
[Matter]          5     1.01224e-02         8.05315e-02     -197.86276
[Matter]          6     1.03551e-02         1.39486e-04     -197.86315

Starting Minimization 2
[Matter]       Iter       Step size           ||Force||         Energy
[Matter]          0     0.00000e+00         4.11278e-01     -197.38722
[Matter]          1     3.12426e-02         2.83922e-01     -197.39366
[Matter]          2     2.00000e-01         4.11916e-01     -197.45036
[Matter]          3     2.00000e-01         1.56315e+00     -197.55852
[Matter]          4     2.00000e-01         2.33027e+00     -197.73471
[Matter]          5     2.00000e-01         2.09678e+00     -197.96404
[Matter]          6     9.40525e-02         4.01604e-01     -198.05451
[Matter]          7     3.12387e-02         3.90998e-01     -198.05822
[Matter]          8     1.37895e-02         3.00853e-02     -198.06091
[Matter]          9     4.09830e-03         3.69747e-03     -198.06097
[Matter]         10     1.36894e-04         3.96828e-05     -198.06097
[Prefactor] including all atoms that make up 90.000% of the motion
[Prefactor] sum of atom distances moved 1.0226
[Prefactor] max moved atom distance: 1.0226
[Prefactor] including 1 atoms in the hessian (1 moved + 0 neighbors)
[Hessian] Hessian size: 3
[Hessian] writing hessian
[Hessian] calculating eigen values of the hessian
[Hessian] eigenvalue problem took 6.0081e-05 seconds
[Hessian] Hessian size: 3
[Hessian] writing hessian
[Hessian] calculating eigen values of the hessian
[Hessian] eigenvalue problem took 6.6996e-05 seconds
[Hessian] Hessian size: 3
[Hessian] writing hessian
[Hessian] calculating eigen values of the hessian
[Hessian] eigenvalue problem took 6.6996e-05 seconds
[Prefactor] reactant to product prefactor: 1.911e+13
[Prefactor] product to reactant prefactor: 1.708e+13
[Saddle Search] Final status: Success
 oFileName           1 results.dat
 oFileName           2 reactant.con
 oFileName           3 mode.dat
 oFileName           4 saddle.con
 oFileName           5 product.con

potential energy saddle                -1.973604373851
barrier reactant to product            7.005349779723e
force calls minimization                            35
random seed                                        108
potential type                              lib_client
potential energy product               -1.978631548075
barrier product to reactant            5.027174223318e
force calls prefactors                               9
prefactor product to reactant          1.708109921720e
total force calls                                  859
force calls saddle                                  70
prefactor reactant to product          1.911149756032e
displacement saddle distance           0.000000000000e
termination reason                                   0
potential energy reactant              -1.980609723631

>>> [Process Search] EON client successful termination!


Final calculations:

      Id   Success         Energy      DB
   --------------------------------------
       1        OK    -7.27860694     Old
       2        OK    -7.27133727     New
       3        OK    -7.25286275   NewTS

---------------
States Database
---------------

        Id        Energy(a.u.)         RE(eV)   RE(kcal/mol)    Counts   TS
     ----------------------------------------------------------------------
         1           -7.278615        0.00000         0.0000         5    F
         2           -7.278607        0.00021         0.0049         3    F
         3           -7.278585        0.00081         0.0187         1    F
         4           -7.271337        0.19803         4.5667         1    F
         5           -7.271311        0.19874         4.5830         3    F
         6           -7.271304        0.19892         4.5873         4    F
         7           -7.271295        0.19917         4.5929         1    F
         8           -7.252882        0.70022        16.1474         1    T 1-->5
         9           -7.252879        0.70030        16.1492         2    T 5-->2
        10           -7.252871        0.70054        16.1547         1    T 1-->7
        11           -7.252868        0.70060        16.1561         1    T 6-->3
        12           -7.252863        0.70075        16.1596         1    T 2-->4
        13           -7.252850        0.70111        16.1679         3    T 1-->6

Number of configurations                            13
Energy range (a.u.)                           0.025765
Energy range (eV)                              0.70111
Energy range (kcal/mol)                        16.1679


EON client 10/150
-----------------

 Next seed state =            3
 
Minimizing initial structure
[Matter]       Iter       Step size           ||Force||         Energy
[Matter]          0     0.00000e+00         5.39705e-05     -198.06037
[Matter]          0     0.00000e+00         5.39705e-05     -198.06037
Saddle point search started from reactant with energy -198.060373 eV.
[Dimer]       Step   Step Size      Delta E            ||Force||   Curvature    Torque    Angle   Rots
[Dimer]          1   0.2000000       0.1479          1.42790e+00      7.2923     1.163    4.529      0
[Dimer]          2   0.2000000       0.4795          2.15039e+00      5.0913     0.349    1.958      1
[Dimer]          3   0.2000000       0.7723          1.94925e+00      0.3138     0.030    1.723      2
[Dimer]          4   0.1778860       0.7853          1.27168e+00     -4.7664     0.382    2.287      1
[Dimer]          5   0.2000000       0.6888          5.93341e-01     -0.6701     0.262    2.793      2
[Dimer]          6   0.0388018       0.6813          5.68584e-01     -0.1395     0.033    0.478      2
[Dimer]          7   0.1061730       0.6750          5.33805e-01     -0.6715     0.121    0.325      1
[Dimer]          8   0.2000000       0.7211          8.52408e-01      0.0886     0.783    2.365      1
[Dimer]          9   0.0837480       0.7127          8.23896e-01     -1.1794     0.027    0.366      1
[Dimer]         10   0.0495386       0.6972          1.95046e-01     -2.9812     0.051    0.383      1
[Dimer]         11   0.0492611       0.7002          2.11187e-02     -3.8157     0.124    0.704      0
[Dimer]         12   0.0010236       0.7002          2.14050e-02     -2.6511     1.173    3.271      1
[Dimer]         13   0.0037634       0.7003          2.32559e-02     -2.6251     0.034    0.329      0
[Dimer]         14   0.0038906       0.7003          1.51319e-03     -2.5953     0.059    0.523      0
[Dimer]         15   0.0004662       0.7003          2.82051e-04     -2.4932     0.141    1.614      0

Starting Minimization 1
[Matter]       Iter       Step size           ||Force||         Energy
[Matter]          0     0.00000e+00         1.02124e+00     -197.43971
[Matter]          1     2.00000e-01         1.55916e+00     -197.67190
[Matter]          2     1.95024e-01         1.26988e+00     -197.81858
[Matter]          3     9.51352e-02         1.66416e-01     -197.85963
[Matter]          4     1.57364e-02         1.69711e-01     -197.86085
[Matter]          5     1.01826e-02         2.33131e-02     -197.86163
[Matter]          6     2.33515e-03         2.70567e-04     -197.86165

Starting Minimization 2
[Matter]       Iter       Step size           ||Force||         Energy
[Matter]          0     0.00000e+00         4.38217e-01     -197.38632
[Matter]          1     3.16552e-02         2.77544e-01     -197.39327
[Matter]          2     2.00000e-01         4.19391e-01     -197.45009
[Matter]          3     2.00000e-01         1.61216e+00     -197.55402
[Matter]          4     2.00000e-01         2.33926e+00     -197.72563
[Matter]          5     2.00000e-01         2.23166e+00     -197.94922
[Matter]          6     1.02697e-01         4.65070e-01     -198.05253
[Matter]          7     2.91719e-02         4.97585e-01     -198.05587
[Matter]          8     1.72463e-02         5.40033e-02     -198.06017
[Matter]          9     7.31447e-03         1.05883e-02     -198.06037
[Matter]         10     3.93626e-04         1.16985e-04     -198.06037
[Prefactor] including all atoms that make up 90.000% of the motion
[Prefactor] sum of atom distances moved 1.0202
[Prefactor] max moved atom distance: 1.0202
[Prefactor] including 1 atoms in the hessian (1 moved + 0 neighbors)
[Hessian] Hessian size: 3
[Hessian] writing hessian
[Hessian] calculating eigen values of the hessian
[Hessian] eigenvalue problem took 6.0797e-05 seconds
[Hessian] Hessian size: 3
[Hessian] writing hessian
[Hessian] calculating eigen values of the hessian
[Hessian] eigenvalue problem took 7.5102e-05 seconds
[Hessian] Hessian size: 3
[Hessian] writing hessian
[Hessian] calculating eigen values of the hessian
[Hessian] eigenvalue problem took 6.9141e-05 seconds
[Prefactor] reactant to product prefactor: 1.909e+13
[Prefactor] product to reactant prefactor: 1.704e+13
[Saddle Search] Final status: Success
 oFileName           1 results.dat
 oFileName           2 reactant.con
 oFileName           3 mode.dat
 oFileName           4 saddle.con
 oFileName           5 product.con

potential energy saddle                -1.973601073806
barrier reactant to product            7.002656501661e
force calls minimization                            35
random seed                                        109
potential type                              lib_client
potential energy product               -1.978616499205
barrier product to reactant            5.015425399563e
force calls prefactors                               9
prefactor product to reactant          1.703530271193e
total force calls                                  962
force calls saddle                                  59
prefactor reactant to product          1.909340138879e
displacement saddle distance           0.000000000000e
termination reason                                   0
potential energy reactant              -1.980603730307

>>> [Process Search] EON client successful termination!


Final calculations:

      Id   Success         Energy      DB
   --------------------------------------
       1        OK    -7.27858492     Old
       2        OK    -7.27128198     New
       3        OK    -7.25285062   NewTS

---------------
States Database
---------------

        Id        Energy(a.u.)         RE(eV)   RE(kcal/mol)    Counts   TS
     ----------------------------------------------------------------------
         1           -7.278615        0.00000         0.0000         5    F
         2           -7.278607        0.00021         0.0049         3    F
         3           -7.278585        0.00081         0.0187         2    F
         4           -7.271337        0.19803         4.5667         1    F
         5           -7.271311        0.19874         4.5830         3    F
         6           -7.271304        0.19892         4.5873         4    F
         7           -7.271295        0.19917         4.5929         1    F
         8           -7.271282        0.19954         4.6014         1    F
         9           -7.252882        0.70022        16.1474         1    T 1-->5
        10           -7.252879        0.70030        16.1492         2    T 5-->2
        11           -7.252871        0.70054        16.1547         1    T 1-->7
        12           -7.252868        0.70060        16.1561         1    T 6-->3
        13           -7.252863        0.70075        16.1596         1    T 2-->4
        14           -7.252851        0.70108        16.1672         1    T 3-->8
        15           -7.252850        0.70111        16.1679         3    T 1-->6

Number of configurations                            15
Energy range (a.u.)                           0.025765
Energy range (eV)                              0.70111
Energy range (kcal/mol)                        16.1679


EON client 11/150
-----------------

 Next seed state =            4
 
Minimizing initial structure
[Matter]       Iter       Step size           ||Force||         Energy
[Matter]          0     0.00000e+00         1.39744e-04     -197.86315
[Matter]          0     0.00000e+00         1.39744e-04     -197.86315
Saddle point search started from reactant with energy -197.863154 eV.
[Dimer]       Step   Step Size      Delta E            ||Force||   Curvature    Torque    Angle   Rots
[Dimer]          1   0.2000000       0.1322          1.27189e+00      6.7985     0.095    0.306      1
[Dimer]          2   0.2000000       0.4337          1.79767e+00      4.9394     0.182    1.021      1
[Dimer]          3   0.1683930       0.5233          1.10938e+00     -3.5698     0.093    0.340      2
[Dimer]          4   0.1724844       0.5131          4.19077e-01     -4.5654     0.697    3.953      1
[Dimer]          5   0.0313046       0.5081          2.13947e-01     -1.7349     0.275    4.501      1
[Dimer]          6   0.0552144       0.5028          4.23563e-02     -2.5960     0.566    1.985      1
[Dimer]          7   0.0031387       0.5027          1.19300e-02     -2.7425     0.247    2.484      0
[Dimer]          8   0.0037086       0.5027          3.13866e-03     -2.7916     0.250    2.557      0
[Dimer]          9   0.0004674       0.5027          2.87988e-03     -2.7158     0.203    2.133      0
[Dimer]         10   0.0005081       0.5027          3.59673e-04     -2.7135     0.199    2.099      0

Starting Minimization 1
[Matter]       Iter       Step size           ||Force||         Energy
[Matter]          0     0.00000e+00         4.39870e-01     -197.38649
[Matter]          1     3.16696e-02         2.76745e-01     -197.39347
[Matter]          2     2.00000e-01         4.15404e-01     -197.44945
[Matter]          3     2.00000e-01         1.61685e+00     -197.54806
[Matter]          4     2.00000e-01         2.35356e+00     -197.71113
[Matter]          5     2.00000e-01         2.42774e+00     -197.92625
[Matter]          6     1.16746e-01         5.93272e-01     -198.04995
[Matter]          7     2.22374e-02         6.81889e-01     -198.05209
[Matter]          8     2.28325e-02         1.16642e-01     -198.06005
[Matter]          9     1.56571e-02         3.21234e-02     -198.06095
[Matter]         10     1.20398e-03         3.59024e-04     -198.06097

Starting Minimization 2
[Matter]       Iter       Step size           ||Force||         Energy
[Matter]          0     0.00000e+00         1.02143e+00     -197.44004
[Matter]          1     2.00000e-01         1.55844e+00     -197.67298
[Matter]          2     1.96314e-01         1.26870e+00     -197.82055
[Matter]          3     9.39407e-02         1.66663e-01     -197.86114
[Matter]          4     1.62582e-02         1.64745e-01     -197.86241
[Matter]          5     9.90593e-03         1.90452e-02     -197.86314
[Matter]          6     1.88116e-03         3.17978e-04     -197.86315
[Prefactor] including all atoms that make up 90.000% of the motion
[Prefactor] sum of atom distances moved 1.0224
[Prefactor] max moved atom distance: 1.0224
[Prefactor] including 1 atoms in the hessian (1 moved + 0 neighbors)
[Hessian] Hessian size: 3
[Hessian] writing hessian
[Hessian] calculating eigen values of the hessian
[Hessian] eigenvalue problem took 5.9128e-05 seconds
[Hessian] Hessian size: 3
[Hessian] writing hessian
[Hessian] calculating eigen values of the hessian
[Hessian] eigenvalue problem took 6.8903e-05 seconds
[Hessian] Hessian size: 3
[Hessian] writing hessian
[Hessian] calculating eigen values of the hessian
[Hessian] eigenvalue problem took 6.8903e-05 seconds
[Prefactor] reactant to product prefactor: 1.708e+13
[Prefactor] product to reactant prefactor: 1.911e+13
[Saddle Search] Final status: Success
 oFileName           1 results.dat
 oFileName           2 reactant.con
 oFileName           3 mode.dat
 oFileName           4 saddle.con
 oFileName           5 product.con

potential energy saddle                -1.973604371422
barrier reactant to product            5.027172352495e
force calls minimization                            35
random seed                                        110
potential type                              lib_client
potential energy product               -1.980609722059
barrier product to reactant            7.005350637175e
force calls prefactors                               9
prefactor product to reactant          1.911144228774e
total force calls                                 1044
force calls saddle                                  38
prefactor reactant to product          1.708092737065e
displacement saddle distance           0.000000000000e
termination reason                                   0
potential energy reactant              -1.978631543774

>>> [Process Search] EON client successful termination!


Final calculations:

      Id   Success         Energy      DB
   --------------------------------------
       1        OK    -7.27133726     Old
       2        OK    -7.27860694     Old
       3        OK    -7.25286274   OldTS

---------------
States Database
---------------

        Id        Energy(a.u.)         RE(eV)   RE(kcal/mol)    Counts   TS
     ----------------------------------------------------------------------
         1           -7.278615        0.00000         0.0000         5    F
         2           -7.278607        0.00021         0.0049         4    F
         3           -7.278585        0.00081         0.0187         2    F
         4           -7.271337        0.19803         4.5667         2    F
         5           -7.271311        0.19874         4.5830         3    F
         6           -7.271304        0.19892         4.5873         4    F
         7           -7.271295        0.19917         4.5929         1    F
         8           -7.271282        0.19954         4.6014         1    F
         9           -7.252882        0.70022        16.1474         1    T 1-->5
        10           -7.252879        0.70030        16.1492         2    T 5-->2
        11           -7.252871        0.70054        16.1547         1    T 1-->7
        12           -7.252868        0.70060        16.1561         1    T 6-->3
        13           -7.252863        0.70075        16.1596         2    T 2-->4
        14           -7.252851        0.70108        16.1672         1    T 3-->8
        15           -7.252850        0.70111        16.1679         3    T 1-->6

Number of configurations                            15
Energy range (a.u.)                           0.025765
Energy range (eV)                              0.70111
[...]
Pt       4.15724366021657       2.40221241044779       7.78986559000000
Pt       9.70154242379886       5.60130287822903       5.52585419000000
Pt       6.92931339701014       0.80051807682261       5.52787789000000
Pt       8.31542791040450       3.20091047752582       5.52686604000000
Pt       4.15782601019883       5.60173064821601       5.52503306000000
Pt       1.38559698341012       0.80094585680958       5.52705675000000
Pt       2.77171149680448       3.20133824751280       5.52604491000000
Pt       6.92968421699885       5.60151675822252       5.52544363000000
Pt       4.15745519021013       0.80073196681610       5.52746732000000
Pt       5.54356970360449       3.20112436751931       5.52645547000000
Pt       6.92989575699241       4.00003631459083       3.26303536000000
Pt       8.31601027038677       6.40042871529404       3.26202352000000
Pt       5.54378123359805       1.59964391388762       3.26404721000000
Pt       9.70175395379242       3.99982243459735       3.26344593000000
Pt      11.08786846718678       6.40021482530056       3.26243408000000
Pt       8.31563944039806       1.59943003389413       3.26445778000000
Pt       4.15803754019240       4.00025020458432       3.26262480000000
Pt       5.54415205358676       6.40064259528753       3.26161295000000
Pt       2.77192302679804       1.59985780388110       3.26363664000000
Pt       1.38639076338595       2.39871526095429       1.00094199000000
Pt       5.54436358358032       4.79916216165584       0.99921469000000
Pt       6.93024519698177       7.19968963235494       1.00043291000000
Pt       4.15824907018596       2.39876976095263       1.00022653000000
Pt       8.31622180038033       4.79894827166235       0.99962525000000
Pt       9.70210340378178       7.19947575236145       1.00084348000000
Pt       6.93010728698597       2.39855587095914       1.00063710000000
Pt       2.77250538678030       4.79937604144933       0.99880412000000
Pt       4.15838699018176       7.19990352214842       1.00002234000000
VEC1       8.31557574680000       0.00000000000000       0.00000000000000
VEC2       4.15778787340000       7.20149984380000       0.00000000000000
VEC3       0.00000000000000       0.00000000000000      20.00000000000000
37
Id 40 Energy(hartree)     -7.25284954
O        5.54283920808837       2.61263684825882       9.08377944048216
Pt       8.31521688681093       4.80239121375751       7.78926430000000
Pt       5.54298769122221       0.00160611995109       7.79128800000000
Pt       6.92910228901657       2.40199866685430       7.79027615000000
Pt      11.08707537241093       4.80244571375585       7.78854885000000
Pt       8.31484617682221       0.00166061994943       7.79057254000000
Pt       9.70096066461658       2.40178478686081       7.79068672000000
Pt       5.54335851121092       4.80260509375099       7.78885374000000
Pt       2.77112931562220       0.00182000994458       7.79087743000000
Pt       4.15724391341656       2.40221255684779       7.78986559000000
Pt       9.70154301459885       5.60130321942903       5.52585419000000
Pt       6.92931381901013       0.80051812562261       5.52787789000000
Pt       8.31542841680448       3.20091067252582       5.52686604000000
Pt       4.15782626339883       5.60173098941600       5.52503306000000
Pt       1.38559706781011       0.80094590560958       5.52705675000000
Pt       2.77171166560448       3.20133844251279       5.52604491000000
Pt       6.92968463899884       5.60151709942251       5.52544363000000
Pt       4.15745544341012       0.80073201561610       5.52746732000000
Pt       5.54357004120448       3.20112456251930       5.52645547000000
Pt       6.92989617899240       4.00003655819082       3.26303536000000
Pt       8.31601077678675       6.40042910509403       3.26202352000000
Pt       5.54378157119804       1.59964401128762       3.26404721000000
Pt       9.70175454459240       3.99982267819734       3.26344593000000
Pt      11.08786914238676       6.40021521510055       3.26243408000000
Pt       8.31563994679804       1.59943013129413       3.26445778000000
Pt       4.15803779339239       4.00025044818431       3.26262480000000
Pt       5.54415239118675       6.40064298508752       3.26161295000000
Pt       2.77192319559803       1.59985790128110       3.26363664000000
Pt       1.38639084778594       2.39871540695428       1.00094199000000
Pt       5.54436392118031       4.79916245385583       0.99921469000000
Pt       6.93024561898175       7.19969007075492       1.00043291000000
Pt       4.15824932338595       2.39876990695262       1.00022653000000
Pt       8.31622230678031       4.79894856386234       0.99962525000000
Pt       9.70210399458176       7.19947619076144       1.00084348000000
Pt       6.93010770898595       2.39855601695914       1.00063710000000
Pt       2.77250555558030       4.79937633384931       0.99880412000000
Pt       4.15838724338175       7.19990396074841       1.00002234000000
VEC1       8.31557574680000       0.00000000000000       0.00000000000000
VEC2       4.15778787340000       7.20149984380000       0.00000000000000
VEC3       0.00000000000000       0.00000000000000      20.00000000000000
37
Id 41 Energy(hartree)     -7.25283533
O        2.77181288205139       2.61276301799496       9.08397876563302
Pt       8.31521638041094       4.80239092135752       7.78926430000000
Pt       5.54298735362222       0.00160611995109       7.79128800000000
Pt       6.92910186701658       2.40199852065430       7.79027615000000
Pt      11.08707469721095       4.80244542135586       7.78854885000000
Pt       8.31484567042223       0.00166061974943       7.79057254000000
Pt       9.70096007381659       2.40178464066082       7.79068672000000
Pt       5.54335817361093       4.80260480135100       7.78885374000000
Pt       2.77112914682221       0.00182000974458       7.79087743000000
Pt       4.15724366021657       2.40221241044779       7.78986559000000
Pt       9.70154242379886       5.60130287822903       5.52585419000000
Pt       6.92931339701014       0.80051807682261       5.52787789000000
Pt       8.31542791040450       3.20091047752582       5.52686604000000
Pt       4.15782601019883       5.60173064821601       5.52503306000000
Pt       1.38559698341012       0.80094585680958       5.52705675000000
Pt       2.77171149680448       3.20133824751280       5.52604491000000
Pt       6.92968421699885       5.60151675822252       5.52544363000000
Pt       4.15745519021013       0.80073196681610       5.52746732000000
Pt       5.54356970360449       3.20112436751931       5.52645547000000
Pt       6.92989575699241       4.00003631459083       3.26303536000000
Pt       8.31601027038677       6.40042871529404       3.26202352000000
Pt       5.54378123359805       1.59964391388762       3.26404721000000
Pt       9.70175395379242       3.99982243459735       3.26344593000000
Pt      11.08786846718678       6.40021482530056       3.26243408000000
Pt       8.31563944039806       1.59943003389413       3.26445778000000
Pt       4.15803754019240       4.00025020458432       3.26262480000000
Pt       5.54415205358676       6.40064259528753       3.26161295000000
Pt       2.77192302679804       1.59985780388110       3.26363664000000
Pt       1.38639076338595       2.39871526095429       1.00094199000000
Pt       5.54436358358032       4.79916216165584       0.99921469000000
Pt       6.93024519698177       7.19968963235494       1.00043291000000
Pt       4.15824907018596       2.39876976095263       1.00022653000000
Pt       8.31622180038033       4.79894827166235       0.99962525000000
Pt       9.70210340378178       7.19947575236145       1.00084348000000
Pt       6.93010728698597       2.39855587095914       1.00063710000000
Pt       2.77250538678030       4.79937604144933       0.99880412000000
Pt       4.15838699018176       7.19990352214842       1.00002234000000
VEC1       8.31557574680000       0.00000000000000       0.00000000000000
VEC2       4.15778787340000       7.20149984380000       0.00000000000000
VEC3       0.00000000000000       0.00000000000000      20.00000000000000
37
Id 42 Energy(hartree)     -7.25283276
O       10.21273970350056       5.89642225731674       9.08369891266414
Pt       8.31521536761097       4.80239033655753       7.78926430000000
Pt       5.54298667842224       0.00160611995109       7.79128800000000
Pt       6.92910102301661       2.40199822825431       7.79027615000000
Pt      11.08707334681099       4.80244483655587       7.78854885000000
Pt       8.31484465762226       0.00166061934943       7.79057254000000
Pt       9.70095889221663       2.40178434826083       7.79068672000000
Pt       5.54335749841095       4.80260421655102       7.78885374000000
Pt       2.77112880922222       0.00182000934458       7.79087743000000
Pt       4.15724315381659       2.40221211764780       7.78986559000000
Pt       9.70154124219890       5.60130219582906       5.52585419000000
Pt       6.92931255301016       0.80051797922261       5.52787789000000
Pt       8.31542689760453       3.20091008752584       5.52686604000000
Pt       4.15782550379885       5.60172996581603       5.52503306000000
Pt       1.38559681461012       0.80094575920959       5.52705675000000
Pt       2.77171115920449       3.20133785751281       5.52604491000000
Pt       6.92968337299888       5.60151607582255       5.52544363000000
Pt       4.15745468381014       0.80073186921610       5.52746732000000
Pt       5.54356902840451       3.20112397751932       5.52645547000000
Pt       6.92989491299243       4.00003582739085       3.26303536000000
Pt       8.31600925758679       6.40042793569407       3.26202352000000
Pt       5.54378055839807       1.59964371908762       3.26404721000000
Pt       9.70175277219246       3.99982194739736       3.26344593000000
Pt      11.08786711678682       6.40021404570058       3.26243408000000
Pt       8.31563842759809       1.59942983909414       3.26445778000000
Pt       4.15803703379241       4.00024971738433       3.26262480000000
Pt       5.54415137838678       6.40064181568756       3.26161295000000
Pt       2.77192268919805       1.59985760908111       3.26363664000000
Pt       1.38639059458595       2.39871496895429       1.00094199000000
Pt       5.54436290838034       4.79916157725586       0.99921469000000
Pt       6.93024435298179       7.19968875555496       1.00043291000000
Pt       4.15824856378597       2.39876946895263       1.00022653000000
Pt       8.31622078758036       4.79894768726237       0.99962525000000
Pt       9.70210222218181       7.19947487556148       1.00084348000000
Pt       6.93010644298599       2.39855557895915       1.00063710000000
Pt       2.77250504918031       4.79937545664934       0.99880412000000
Pt       4.15838648378177       7.19990264494845       1.00002234000000
VEC1       8.31557574680000       0.00000000000000       0.00000000000000
VEC2       4.15778787340000       7.20149984380000       0.00000000000000
VEC3       0.00000000000000       0.00000000000000      20.00000000000000
37
Id 43 Energy(hartree)     -7.25283254
O        7.44020153627517       5.89681023605381       9.08376749922075
Pt       8.31521638041094       4.80239092135752       7.78926430000000
Pt       5.54298735362222       0.00160611995109       7.79128800000000
Pt       6.92910186701658       2.40199852065430       7.79027615000000
Pt      11.08707469721095       4.80244542135586       7.78854885000000
Pt       8.31484567042223       0.00166061974943       7.79057254000000
Pt       9.70096007381659       2.40178464066082       7.79068672000000
Pt       5.54335817361093       4.80260480135100       7.78885374000000
Pt       2.77112914682221       0.00182000974458       7.79087743000000
Pt       4.15724366021657       2.40221241044779       7.78986559000000
Pt       9.70154242379886       5.60130287822903       5.52585419000000
Pt       6.92931339701014       0.80051807682261       5.52787789000000
Pt       8.31542791040450       3.20091047752582       5.52686604000000
Pt       4.15782601019883       5.60173064821601       5.52503306000000
Pt       1.38559698341012       0.80094585680958       5.52705675000000
Pt       2.77171149680448       3.20133824751280       5.52604491000000
Pt       6.92968421699885       5.60151675822252       5.52544363000000
Pt       4.15745519021013       0.80073196681610       5.52746732000000
Pt       5.54356970360449       3.20112436751931       5.52645547000000
Pt       6.92989575699241       4.00003631459083       3.26303536000000
Pt       8.31601027038677       6.40042871529404       3.26202352000000
Pt       5.54378123359805       1.59964391388762       3.26404721000000
Pt       9.70175395379242       3.99982243459735       3.26344593000000
Pt      11.08786846718678       6.40021482530056       3.26243408000000
Pt       8.31563944039806       1.59943003389413       3.26445778000000
Pt       4.15803754019240       4.00025020458432       3.26262480000000
Pt       5.54415205358676       6.40064259528753       3.26161295000000
Pt       2.77192302679804       1.59985780388110       3.26363664000000
Pt       1.38639076338595       2.39871526095429       1.00094199000000
Pt       5.54436358358032       4.79916216165584       0.99921469000000
Pt       6.93024519698177       7.19968963235494       1.00043291000000
Pt       4.15824907018596       2.39876976095263       1.00022653000000
Pt       8.31622180038033       4.79894827166235       0.99962525000000
Pt       9.70210340378178       7.19947575236145       1.00084348000000
Pt       6.93010728698597       2.39855587095914       1.00063710000000
Pt       2.77250538678030       4.79937604144933       0.99880412000000
Pt       4.15838699018176       7.19990352214842       1.00002234000000
VEC1       8.31557574680000       0.00000000000000       0.00000000000000
VEC2       4.15778787340000       7.20149984380000       0.00000000000000
VEC3       0.00000000000000       0.00000000000000      20.00000000000000
37
Id 44 Energy(hartree)     -7.25283184
O        4.15739935534134       5.01074555134272       9.08272538766797
Pt       8.31521587401095       4.80239062895753       7.78926430000000
Pt       5.54298701602224       0.00160611995109       7.79128800000000
Pt       6.92910144501660       2.40199837445431       7.79027615000000
Pt      11.08707402201097       4.80244512895587       7.78854885000000
Pt       8.31484516402224       0.00166061954943       7.79057254000000
Pt       9.70095948301661       2.40178449446082       7.79068672000000
Pt       5.54335783601094       4.80260450895101       7.78885374000000
Pt       2.77112897802221       0.00182000954458       7.79087743000000
Pt       4.15724340701658       2.40221226404779       7.78986559000000
Pt       9.70154183299888       5.60130253702905       5.52585419000000
Pt       6.92931297501015       0.80051802802261       5.52787789000000
Pt       8.31542740400452       3.20091028252583       5.52686604000000
Pt       4.15782575699885       5.60173030701602       5.52503306000000
Pt       1.38559689901012       0.80094580800959       5.52705675000000
Pt       2.77171132800448       3.20133805251280       5.52604491000000
Pt       6.92968379499886       5.60151641702253       5.52544363000000
Pt       4.15745493701014       0.80073191801610       5.52746732000000
Pt       5.54356936600450       3.20112417251932       5.52645547000000
Pt       6.92989533499242       4.00003607099084       3.26303536000000
Pt       8.31600976398678       6.40042832549406       3.26202352000000
Pt       5.54378089599806       1.59964381648762       3.26404721000000
Pt       9.70175336299244       3.99982219099735       3.26344593000000
Pt      11.08786779198680       6.40021443550057       3.26243408000000
Pt       8.31563893399808       1.59942993649413       3.26445778000000
Pt       4.15803728699241       4.00024996098433       3.26262480000000
Pt       5.54415171598677       6.40064220548754       3.26161295000000
Pt       2.77192285799804       1.59985770648111       3.26363664000000
Pt       1.38639067898595       2.39871511495429       1.00094199000000
Pt       5.54436324598033       4.79916186945585       0.99921469000000
Pt       6.93024477498178       7.19968919395495       1.00043291000000
Pt       4.15824881698596       2.39876961495263       1.00022653000000
Pt       8.31622129398034       4.79894797946236       0.99962525000000
Pt       9.70210281298180       7.19947531396147       1.00084348000000
Pt       6.93010686498598       2.39855572495914       1.00063710000000
Pt       2.77250521798031       4.79937574904933       0.99880412000000
Pt       4.15838673698176       7.19990308354844       1.00002234000000
VEC1       8.31557574680000       0.00000000000000       0.00000000000000
VEC2       4.15778787340000       7.20149984380000       0.00000000000000
VEC3       0.00000000000000       0.00000000000000      20.00000000000000
37
Id 45 Energy(hartree)     -7.25282176
O        4.66872024429711       5.89656762258550       9.08343541869825
Pt       8.31521587401095       4.80239062895753       7.78926430000000
Pt       5.54298701602224       0.00160611995109       7.79128800000000
Pt       6.92910144501660       2.40199837445431       7.79027615000000
Pt      11.08707402201097       4.80244512895587       7.78854885000000
Pt       8.31484516402224       0.00166061954943       7.79057254000000
Pt       9.70095948301661       2.40178449446082       7.79068672000000
Pt       5.54335783601094       4.80260450895101       7.78885374000000
Pt       2.77112897802221       0.00182000954458       7.79087743000000
Pt       4.15724340701658       2.40221226404779       7.78986559000000
Pt       9.70154183299888       5.60130253702905       5.52585419000000
Pt       6.92931297501015       0.80051802802261       5.52787789000000
Pt       8.31542740400452       3.20091028252583       5.52686604000000
Pt       4.15782575699885       5.60173030701602       5.52503306000000
Pt       1.38559689901012       0.80094580800959       5.52705675000000
Pt       2.77171132800448       3.20133805251280       5.52604491000000
Pt       6.92968379499886       5.60151641702253       5.52544363000000
Pt       4.15745493701014       0.80073191801610       5.52746732000000
Pt       5.54356936600450       3.20112417251932       5.52645547000000
Pt       6.92989533499242       4.00003607099084       3.26303536000000
Pt       8.31600976398678       6.40042832549406       3.26202352000000
Pt       5.54378089599806       1.59964381648762       3.26404721000000
Pt       9.70175336299244       3.99982219099735       3.26344593000000
Pt      11.08786779198680       6.40021443550057       3.26243408000000
Pt       8.31563893399808       1.59942993649413       3.26445778000000
Pt       4.15803728699241       4.00024996098433       3.26262480000000
Pt       5.54415171598677       6.40064220548754       3.26161295000000
Pt       2.77192285799804       1.59985770648111       3.26363664000000
Pt       1.38639067898595       2.39871511495429       1.00094199000000
Pt       5.54436324598033       4.79916186945585       0.99921469000000
Pt       6.93024477498178       7.19968919395495       1.00043291000000
Pt       4.15824881698596       2.39876961495263       1.00022653000000
Pt       8.31622129398034       4.79894797946236       0.99962525000000
Pt       9.70210281298180       7.19947531396147       1.00084348000000
Pt       6.93010686498598       2.39855572495914       1.00063710000000
Pt       2.77250521798031       4.79937574904933       0.99880412000000
Pt       4.15838673698176       7.19990308354844       1.00002234000000
VEC1       8.31557574680000       0.00000000000000       0.00000000000000
VEC2       4.15778787340000       7.20149984380000       0.00000000000000
VEC3       0.00000000000000       0.00000000000000      20.00000000000000

AMS application finished. Exiting.
 NORMAL TERMINATION
     Total cpu time:     298.70
  Total system time:       1.01
 Total elapsed time:     299.77
