

 Parallel Execution: Process Information
 ==============================================================================
 Rank   Node Name                              NodeID   MyNodeRank  NodeMaster
    0   aguirre-XPS-13-7390                       0          0          0
    1   aguirre-XPS-13-7390                       0          1         -1
    2   aguirre-XPS-13-7390                       0          2         -1
    3   aguirre-XPS-13-7390                       0          3         -1
 ==============================================================================


May use up to 7486MB of RAM as shared memory on node 0
Floating license: not using directory 
Floating license: not using directory 
Floating license: not using directory 
Floating license: not using directory 

 *******************************************************************************
 *                                                                             *
 *  --------------------------------                                           *
 *   Amsterdam Modeling Suite (AMS)              2022.203                      *
 *  --------------------------------                                           *
 *                                               r103988 2022-05-11            *
 *                                                                             *
 *                                                                             *
 *                              =================                              *
 *                              |               |                              *
 *                              |     A M S     |                              *
 *                              |               |                              *
 *                              =================                              *
 *                                                                             *
 *                                                                             *
 *   Online information and documentation:  https://www.scm.com/support/       *
 *   E-mail:  support@scm.com   info@scm.com                                   *
 *                                                                             *
 *   Scientific publications using AMS results must be properly referenced     *
 *   See the User Manuals (or the web site) for recommended citations          *
 *   The terms and conditions of the End User License Agreement apply to       *
 *   the use of AMS, https://www.scm.com/license-terms/                        *
 *                                                                             *
 ***********************  x86_64_linux_gnu7 / intelmpi  ************************
 
 Licensed to: Dr. Nestor Aguirre Castiblanco  / SCM / Amsterdam / NETHERLANDS 2022-01-24 09:33:25
 SCM User ID: u22021
  
 AMS 2022.203  RunTime: May13-2022 12:21:29  ShM Nodes: 1  Procs: 4

 AMS jobname: O-Pt111
 AMS jobid  : 737834235

 Start   directory: /home/aguirre/Develop/pyzacros/test_RKFLoader/O-Pt111/
 Results directory: /home/aguirre/Develop/pyzacros/test_RKFLoader/O-Pt111/
 Scratch directory: /scratch/aguirre/amstmp_O-Pt111_kid0.737834235/


 Communication costs MPI_COMM_WORLD:      0.492 usec per message,   0.0079 usec per 8-byte item
 Communication costs for intra-node:      0.514 usec per message,   0.0082 usec per 8-byte item

 RNG seed: 857060229 -107626588 -145024544 560283571 -919209297 -1060223772 -1978584872 -935360210
 MPI rank    0: Number of processors available to this process:      2
 MPI rank    0: Default max number of OpenMP threads:                2
 MPI rank    0: The OMP_NUM_THREADS environment variable is not set!
 MPI rank    0: Restrict max number of OpenMP threads to:            1
Force field identifier: Reactive MD-force field: C/H/O/N/S/F/Pt/
 Triple bond stabilization enabled for C-O only
 Non-bonding interaction type[nonbontype]:
 No inner wall, shielding
 Warning:changed vval3 to valf for X 

Reference geometry:
   Note: All states are going to be aligned with this reference

--------
Geometry
--------
Formula: Pt36
Atoms
  Index Symbol   x (angstrom)   y (angstrom)   z (angstrom)
      1     Pt     9.24070201     6.95527267     1.31036083       region=surface
      2     Pt     9.24070201     2.15427277     1.31036083       region=surface
      3     Pt    10.62663130     4.55477272     1.31036083       region=surface
      4     Pt    12.01256059     6.95527267     1.31036083       region=surface
      5     Pt     3.69698485     2.15427277     8.10000000       region=surface
      6     Pt     5.08291414     4.55477272     8.10000000       region=surface
      7     Pt     6.46884343     6.95527267     8.10000000       region=surface
      8     Pt     6.46884343     2.15427277     8.10000000       region=surface
      9     Pt     7.85477272     4.55477272     8.10000000       region=surface
     10     Pt     9.24070201     6.95527267     8.10000000       region=surface
     11     Pt     9.24070201     2.15427277     8.10000000       region=surface
     12     Pt    10.62663130     4.55477272     8.10000000       region=surface
     13     Pt    12.01256059     6.95527267     8.10000000       region=surface
     14     Pt     5.08291414     2.95443942     5.83678694       region=surface
     15     Pt     6.46884343     5.35493937     5.83678694       region=surface
     16     Pt     7.85477272     7.75543932     5.83678694       region=surface
     17     Pt     7.85477272     2.95443942     5.83678694       region=surface
     18     Pt     9.24070201     5.35493937     5.83678694       region=surface
     19     Pt    10.62663130     7.75543932     5.83678694       region=surface
     20     Pt    10.62663130     2.95443942     5.83678694       region=surface
     21     Pt    12.01256059     5.35493937     5.83678694       region=surface
     22     Pt    13.39848987     7.75543932     5.83678694       region=surface
     23     Pt     2.31105556     1.35410612     3.57357389       region=surface
     24     Pt     3.69698485     3.75460607     3.57357389       region=surface
     25     Pt     5.08291414     6.15510602     3.57357389       region=surface
     26     Pt     5.08291414     1.35410612     3.57357389       region=surface
     27     Pt     6.46884343     3.75460607     3.57357389       region=surface
     28     Pt     7.85477272     6.15510602     3.57357389       region=surface
     29     Pt     7.85477272     1.35410612     3.57357389       region=surface
     30     Pt     9.24070201     3.75460607     3.57357389       region=surface
     31     Pt    10.62663130     6.15510602     3.57357389       region=surface
     32     Pt     3.69698485     2.15427277     1.31036083       region=surface
     33     Pt     5.08291414     4.55477272     1.31036083       region=surface
     34     Pt     6.46884343     6.95527267     1.31036083       region=surface
     35     Pt     6.46884343     2.15427277     1.31036083       region=surface
     36     Pt     7.85477272     4.55477272     1.31036083       region=surface

Lattice vectors (angstrom)
      1     8.31557575     0.00000000     0.00000000
      2     4.15778787     7.20149984     0.00000000

Unit cell area (angstrom^2)        59.88462

Total System Charge             0.00000


Aligning All Database With the Reference Adsorbent
--------------------------------------------------
   Alignment successful


Reference geometry:
   Note: All states are going to be aligned with this reference

--------
Geometry
--------
Formula: Pt36
Atoms
  Index Symbol   x (angstrom)   y (angstrom)   z (angstrom)
      1     Pt     9.24070201     6.95527267     1.31036083       region=surface
      2     Pt     9.24070201     2.15427277     1.31036083       region=surface
      3     Pt    10.62663130     4.55477272     1.31036083       region=surface
      4     Pt    12.01256059     6.95527267     1.31036083       region=surface
      5     Pt     3.69698485     2.15427277     8.10000000       region=surface
      6     Pt     5.08291414     4.55477272     8.10000000       region=surface
      7     Pt     6.46884343     6.95527267     8.10000000       region=surface
      8     Pt     6.46884343     2.15427277     8.10000000       region=surface
      9     Pt     7.85477272     4.55477272     8.10000000       region=surface
     10     Pt     9.24070201     6.95527267     8.10000000       region=surface
     11     Pt     9.24070201     2.15427277     8.10000000       region=surface
     12     Pt    10.62663130     4.55477272     8.10000000       region=surface
     13     Pt    12.01256059     6.95527267     8.10000000       region=surface
     14     Pt     5.08291414     2.95443942     5.83678694       region=surface
     15     Pt     6.46884343     5.35493937     5.83678694       region=surface
     16     Pt     7.85477272     7.75543932     5.83678694       region=surface
     17     Pt     7.85477272     2.95443942     5.83678694       region=surface
     18     Pt     9.24070201     5.35493937     5.83678694       region=surface
     19     Pt    10.62663130     7.75543932     5.83678694       region=surface
     20     Pt    10.62663130     2.95443942     5.83678694       region=surface
     21     Pt    12.01256059     5.35493937     5.83678694       region=surface
     22     Pt    13.39848987     7.75543932     5.83678694       region=surface
     23     Pt     2.31105556     1.35410612     3.57357389       region=surface
     24     Pt     3.69698485     3.75460607     3.57357389       region=surface
     25     Pt     5.08291414     6.15510602     3.57357389       region=surface
     26     Pt     5.08291414     1.35410612     3.57357389       region=surface
     27     Pt     6.46884343     3.75460607     3.57357389       region=surface
     28     Pt     7.85477272     6.15510602     3.57357389       region=surface
     29     Pt     7.85477272     1.35410612     3.57357389       region=surface
     30     Pt     9.24070201     3.75460607     3.57357389       region=surface
     31     Pt    10.62663130     6.15510602     3.57357389       region=surface
     32     Pt     3.69698485     2.15427277     1.31036083       region=surface
     33     Pt     5.08291414     4.55477272     1.31036083       region=surface
     34     Pt     6.46884343     6.95527267     1.31036083       region=surface
     35     Pt     6.46884343     2.15427277     1.31036083       region=surface
     36     Pt     7.85477272     4.55477272     1.31036083       region=surface

Lattice vectors (angstrom)
      1     8.31557575     0.00000000     0.00000000
      2     4.15778787     7.20149984     0.00000000

Unit cell area (angstrom^2)        59.88462

Total System Charge             0.00000


---------------------------
PES Exploration Parameters*
---------------------------

*) All parameters are ignored except:
   
Temperature                                  300.00000
GenerateSymmetryImages                               F
   
   Prefactor
   ---------
   Rate                                           htst
   
      Optimizer
      ---------
      ConvergedForce                           0.00500
   
   StructureComparison
   -------------------
   DistanceDifference                          0.20000
   NeighborCutoff                              2.40000
   CheckRotation                                     F
   IndistinguishableAtoms                            T
   CheckSymmetry                                     F
   EnergyDifference                            0.05000
   RemoveTranslation                                 F
   
   
   StatesAlignment
   ---------------
   ReferenceRegion                             surface
   RemoveUnaligned                                   F
   DistanceDifference                          0.20000

   BindingSites
   ------------
   Calculate                                         T
   DistanceDifference                          0.50000
   NeighborCutoff                              3.80000

       **************************************
       * Loading Energy Landscape to refine *
       **************************************

Restoring energy landscape from: /home/aguirre/Develop/pyzacros/test_RKFLoader/O-Pt111/../O_ads-Pt111

-------------------------
Checking Duplicate States
-------------------------

      Id         Energy      DB
   ----------------------------
   Local minima
       1      -7.278562     New
       2      -7.271255     New
   Transition states
       3      -7.252826   NewTS 1 <--> 2

> Sorting Energy Landscape by Energy ... DONE


Restoring fragments energy landscape from: /home/aguirre/Develop/pyzacros/test_RKFLoader/O-Pt111/../O_ads-Pt111

--------------------------
Generating Symmetry Images
--------------------------

ReferenceRegion                                surface
NSymmetryOperators                                 108

     ParentId  Operator        Id         Energy      DB
   --------------------------------------------------------
            1         1         1      -7.278562     Old=>1
            1         2         2      -7.278562     New=>4
            1         3         3      -7.278562     New=>5
            1         4         4      -7.278562     New=>6
            1         5         5      -7.278562     New=>7
            1         6         6      -7.278562     New=>8
            1         7         7      -7.278562     New=>9
            1         8         8      -7.278562     New=>10
            1         9         9      -7.278562     New=>11
            1        10        10      -7.278562     Old=>9
            1        11        11      -7.278562     Old=>10
            1        12        12      -7.278562     Old=>11
            1        13        13      -7.278562     Old=>1
            1        14        14      -7.278562     Old=>4
            1        15        15      -7.278562     Old=>5
            1        16        16      -7.278562     Old=>6
            1        17        17      -7.278562     Old=>7
            1        18        18      -7.278562     Old=>8
            1        19        19      -7.278562     Old=>7
            1        20        20      -7.278562     Old=>11
            1        21        21      -7.278562     Old=>1
            1        22        22      -7.278562     Old=>10
            1        23        23      -7.278562     Old=>5
            1        24        24      -7.278562     Old=>6
            1        25        25      -7.278562     Old=>4
            1        26        26      -7.278562     Old=>8
            1        27        27      -7.278562     Old=>9
            1        28        28      -7.278562     Old=>9
            1        29        29      -7.278562     Old=>10
            1        30        30      -7.278562     Old=>11
            1        31        31      -7.278562     Old=>1
            1        32        32      -7.278562     Old=>4
            1        33        33      -7.278562     Old=>5
            1        34        34      -7.278562     Old=>6
            1        35        35      -7.278562     Old=>7
            1        36        36      -7.278562     Old=>8
            1        37        37      -7.278562     Old=>1
            1        38        38      -7.278562     Old=>4
            1        39        39      -7.278562     Old=>5
            1        40        40      -7.278562     Old=>6
            1        41        41      -7.278562     Old=>7
            1        42        42      -7.278562     Old=>8
            1        43        43      -7.278562     Old=>9
            1        44        44      -7.278562     Old=>10
            1        45        45      -7.278562     Old=>11
            1        46        46      -7.278562     Old=>7
            1        47        47      -7.278562     Old=>11
            1        48        48      -7.278562     Old=>1
            1        49        49      -7.278562     Old=>10
            1        50        50      -7.278562     Old=>5
            1        51        51      -7.278562     Old=>6
            1        52        52      -7.278562     Old=>4
            1        53        53      -7.278562     Old=>8
            1        54        54      -7.278562     Old=>9
            1        55        55                IGNORED (+z -> -z)
            1        55        56                IGNORED (+z -> -z)
            1        55        57                IGNORED (+z -> -z)
            1        55        58                IGNORED (+z -> -z)
            1        55        59                IGNORED (+z -> -z)
            1        55        60                IGNORED (+z -> -z)
            1        55        61                IGNORED (+z -> -z)
            1        55        62                IGNORED (+z -> -z)
            1        55        63                IGNORED (+z -> -z)
            1        55        64                IGNORED (+z -> -z)
            1        55        65                IGNORED (+z -> -z)
            1        55        66                IGNORED (+z -> -z)
            1        55        67                IGNORED (+z -> -z)
            1        55        68                IGNORED (+z -> -z)
            1        55        69                IGNORED (+z -> -z)
            1        55        70                IGNORED (+z -> -z)
            1        55        71                IGNORED (+z -> -z)
            1        55        72                IGNORED (+z -> -z)
            1        55        73                IGNORED (+z -> -z)
            1        55        74                IGNORED (+z -> -z)
            1        55        75                IGNORED (+z -> -z)
            1        55        76                IGNORED (+z -> -z)
            1        55        77                IGNORED (+z -> -z)
            1        55        78                IGNORED (+z -> -z)
            1        55        79                IGNORED (+z -> -z)
            1        55        80                IGNORED (+z -> -z)
            1        55        81                IGNORED (+z -> -z)
            1        55        82                IGNORED (+z -> -z)
            1        55        83                IGNORED (+z -> -z)
            1        55        84                IGNORED (+z -> -z)
            1        55        85                IGNORED (+z -> -z)
            1        55        86                IGNORED (+z -> -z)
            1        55        87                IGNORED (+z -> -z)
            1        55        88                IGNORED (+z -> -z)
            1        55        89                IGNORED (+z -> -z)
            1        55        90                IGNORED (+z -> -z)
            1        55        91                IGNORED (+z -> -z)
            1        55        92                IGNORED (+z -> -z)
            1        55        93                IGNORED (+z -> -z)
            1        55        94                IGNORED (+z -> -z)
            1        55        95                IGNORED (+z -> -z)
            1        55        96                IGNORED (+z -> -z)
            1        55        97                IGNORED (+z -> -z)
            1        55        98                IGNORED (+z -> -z)
            1        55        99                IGNORED (+z -> -z)
            1        55       100                IGNORED (+z -> -z)
            1        55       101                IGNORED (+z -> -z)
            1        55       102                IGNORED (+z -> -z)
            1        55       103                IGNORED (+z -> -z)
            1        55       104                IGNORED (+z -> -z)
            1        55       105                IGNORED (+z -> -z)
            1        55       106                IGNORED (+z -> -z)
            1        55       107                IGNORED (+z -> -z)
            1        55       108                IGNORED (+z -> -z)
 Geometry symmetrized to: C1
 Geometry reoriented with symmetry: ATOM
 Geometry symmetrized to: C1
 Geometry reoriented with symmetry: ATOM
 Geometry symmetrized to: C1
 Geometry reoriented with symmetry: ATOM
 Geometry symmetrized to: C1
 Geometry reoriented with symmetry: ATOM
 Geometry symmetrized to: C1
 Geometry reoriented with symmetry: ATOM
 Geometry symmetrized to: C1
 Geometry reoriented with symmetry: ATOM
 Geometry symmetrized to: C1
 Geometry reoriented with symmetry: ATOM
 Geometry symmetrized to: C1
 Geometry reoriented with symmetry: ATOM
 Geometry symmetrized to: C1
 Geometry reoriented with symmetry: ATOM
 Geometry symmetrized to: C1
 Geometry reoriented with symmetry: ATOM
 Geometry symmetrized to: C1
 Geometry reoriented with symmetry: ATOM
 Geometry symmetrized to: C1
 Geometry reoriented with symmetry: ATOM
 Geometry symmetrized to: C1
 Geometry reoriented with symmetry: ATOM
 Geometry symmetrized to: C1
 Geometry reoriented with symmetry: ATOM
 Geometry symmetrized to: C1
 Geometry reoriented with symmetry: ATOM
 Geometry symmetrized to: C1
 Geometry reoriented with symmetry: ATOM
            2        55         1      -7.271255     Old=>2
            2        56         2      -7.271255     New=>12
            2        57         3      -7.271255     New=>13
            2        58         4      -7.271255     New=>14
            2        59         5      -7.271255     New=>15
            2        60         6      -7.271255     New=>16
            2        61         7      -7.271255     New=>17
            2        62         8      -7.271255     New=>18
            2        63         9      -7.271255     New=>19
            2        64        10      -7.271255     Old=>2
            2        65        11      -7.271255     Old=>12
            2        66        12      -7.271255     Old=>13
            2        67        13      -7.271255     Old=>14
            2        68        14      -7.271255     Old=>15
            2        69        15      -7.271255     Old=>16
            2        70        16      -7.271255     Old=>17
            2        71        17      -7.271255     Old=>18
            2        72        18      -7.271255     Old=>19
            2        73        19      -7.271255     Old=>15
            2        74        20      -7.271255     Old=>19
            2        75        21      -7.271255     Old=>2
            2        76        22      -7.271255     Old=>18
            2        77        23      -7.271255     Old=>13
            2        78        24      -7.271255     Old=>14
            2        79        25      -7.271255     Old=>12
            2        80        26      -7.271255     Old=>16
            2        81        27      -7.271255     Old=>17
            2        82        28      -7.271255     Old=>15
            2        83        29      -7.271255     Old=>19
            2        84        30      -7.271255     Old=>2
            2        85        31      -7.271255     Old=>18
            2        86        32      -7.271255     Old=>13
            2        87        33      -7.271255     Old=>14
            2        88        34      -7.271255     Old=>12
            2        89        35      -7.271255     Old=>16
            2        90        36      -7.271255     Old=>17
            2        91        37      -7.271255     Old=>18
            2        92        38      -7.271255     Old=>13
            2        93        39      -7.271255     Old=>14
            2        94        40      -7.271255     Old=>12
            2        95        41      -7.271255     Old=>16
            2        96        42      -7.271255     Old=>17
            2        97        43      -7.271255     Old=>15
            2        98        44      -7.271255     Old=>19
            2        99        45      -7.271255     Old=>2
            2       100        46      -7.271255     Old=>18
            2       101        47      -7.271255     Old=>13
            2       102        48      -7.271255     Old=>14
            2       103        49      -7.271255     Old=>12
            2       104        50      -7.271255     Old=>16
            2       105        51      -7.271255     Old=>17
            2       106        52      -7.271255     Old=>15
            2       107        53      -7.271255     Old=>19
            2       108        54      -7.271255     Old=>2
            2       109        55                IGNORED (+z -> -z)
            2       109        56                IGNORED (+z -> -z)
            2       109        57                IGNORED (+z -> -z)
            2       109        58                IGNORED (+z -> -z)
            2       109        59                IGNORED (+z -> -z)
            2       109        60                IGNORED (+z -> -z)
            2       109        61                IGNORED (+z -> -z)
            2       109        62                IGNORED (+z -> -z)
            2       109        63                IGNORED (+z -> -z)
            2       109        64                IGNORED (+z -> -z)
            2       109        65                IGNORED (+z -> -z)
            2       109        66                IGNORED (+z -> -z)
            2       109        67                IGNORED (+z -> -z)
            2       109        68                IGNORED (+z -> -z)
            2       109        69                IGNORED (+z -> -z)
            2       109        70                IGNORED (+z -> -z)
            2       109        71                IGNORED (+z -> -z)
            2       109        72                IGNORED (+z -> -z)
            2       109        73                IGNORED (+z -> -z)
            2       109        74                IGNORED (+z -> -z)
            2       109        75                IGNORED (+z -> -z)
            2       109        76                IGNORED (+z -> -z)
            2       109        77                IGNORED (+z -> -z)
            2       109        78                IGNORED (+z -> -z)
            2       109        79                IGNORED (+z -> -z)
            2       109        80                IGNORED (+z -> -z)
            2       109        81                IGNORED (+z -> -z)
            2       109        82                IGNORED (+z -> -z)
            2       109        83                IGNORED (+z -> -z)
            2       109        84                IGNORED (+z -> -z)
            2       109        85                IGNORED (+z -> -z)
            2       109        86                IGNORED (+z -> -z)
            2       109        87                IGNORED (+z -> -z)
            2       109        88                IGNORED (+z -> -z)
            2       109        89                IGNORED (+z -> -z)
            2       109        90                IGNORED (+z -> -z)
            2       109        91                IGNORED (+z -> -z)
            2       109        92                IGNORED (+z -> -z)
            2       109        93                IGNORED (+z -> -z)
            2       109        94                IGNORED (+z -> -z)
            2       109        95                IGNORED (+z -> -z)
            2       109        96                IGNORED (+z -> -z)
            2       109        97                IGNORED (+z -> -z)
            2       109        98                IGNORED (+z -> -z)
            2       109        99                IGNORED (+z -> -z)
            2       109       100                IGNORED (+z -> -z)
            2       109       101                IGNORED (+z -> -z)
            2       109       102                IGNORED (+z -> -z)
            2       109       103                IGNORED (+z -> -z)
            2       109       104                IGNORED (+z -> -z)
            2       109       105                IGNORED (+z -> -z)
            2       109       106                IGNORED (+z -> -z)
            2       109       107                IGNORED (+z -> -z)
            2       109       108                IGNORED (+z -> -z)
 Geometry symmetrized to: C1
 Geometry reoriented with symmetry: ATOM
 Geometry symmetrized to: C1
 Geometry reoriented with symmetry: ATOM
 Geometry symmetrized to: C1
 Geometry reoriented with symmetry: ATOM
 Geometry symmetrized to: C1
 Geometry reoriented with symmetry: ATOM
 Geometry symmetrized to: C1
 Geometry reoriented with symmetry: ATOM
 Geometry symmetrized to: C1
 Geometry reoriented with symmetry: ATOM
 Geometry symmetrized to: C1
 Geometry reoriented with symmetry: ATOM
 Geometry symmetrized to: C1
 Geometry reoriented with symmetry: ATOM
 Geometry symmetrized to: C1
 Geometry reoriented with symmetry: ATOM
 Geometry symmetrized to: C1
 Geometry reoriented with symmetry: ATOM
 Geometry symmetrized to: C1
 Geometry reoriented with symmetry: ATOM
 Geometry symmetrized to: C1
 Geometry reoriented with symmetry: ATOM
 Geometry symmetrized to: C1
 Geometry reoriented with symmetry: ATOM
 Geometry symmetrized to: C1
 Geometry reoriented with symmetry: ATOM
 Geometry symmetrized to: C1
 Geometry reoriented with symmetry: ATOM
 Geometry symmetrized to: C1
 Geometry reoriented with symmetry: ATOM
            3       109         1      -7.278562     Old=>1
            3       110         1      -7.271255     Old=>2
            3       111         1      -7.252826   OldTS=>3
            3       112         2      -7.278562     Old=>4
            3       113         2      -7.271255     Old=>12
            3       114         2      -7.252826   NewTS=>20
            3       115         3      -7.278562     Old=>5
            3       116         3      -7.271255     Old=>13
            3       117         3      -7.252826   NewTS=>21
            3       118         4      -7.278562     Old=>6
            3       119         4      -7.271255     Old=>14
            3       120         4      -7.252826   NewTS=>22
            3       121         5      -7.278562     Old=>7
            3       122         5      -7.271255     Old=>15
            3       123         5      -7.252826   NewTS=>23
            3       124         6      -7.278562     Old=>8
            3       125         6      -7.271255     Old=>16
            3       126         6      -7.252826   NewTS=>24
            3       127         7      -7.278562     Old=>9
            3       128         7      -7.271255     Old=>17
            3       129         7      -7.252826   NewTS=>25
            3       130         8      -7.278562     Old=>10
            3       131         8      -7.271255     Old=>18
            3       132         8      -7.252826   NewTS=>26
            3       133         9      -7.278562     Old=>11
            3       134         9      -7.271255     Old=>19
            3       135         9      -7.252826   NewTS=>27
            3       136        10      -7.278562     Old=>9
            3       137        10      -7.271255     Old=>2
            3       138        10      -7.252826   NewTS=>28
            3       139        11      -7.278562     Old=>10
            3       140        11      -7.271255     Old=>12
            3       141        11      -7.252826   NewTS=>29
            3       142        12      -7.278562     Old=>11
            3       143        12      -7.271255     Old=>13
            3       144        12      -7.252826   NewTS=>30
            3       145        13      -7.278562     Old=>1
            3       146        13      -7.271255     Old=>14
            3       147        13      -7.252826   NewTS=>31
            3       148        14      -7.278562     Old=>4
            3       149        14      -7.271255     Old=>15
            3       150        14      -7.252826   NewTS=>32
            3       151        15      -7.278562     Old=>5
            3       152        15      -7.271255     Old=>16
            3       153        15      -7.252826   NewTS=>33
            3       154        16      -7.278562     Old=>6
            3       155        16      -7.271255     Old=>17
            3       156        16      -7.252826   NewTS=>34
            3       157        17      -7.278562     Old=>7
            3       158        17      -7.271255     Old=>18
            3       159        17      -7.252826   NewTS=>35
            3       160        18      -7.278562     Old=>8
            3       161        18      -7.271255     Old=>19
            3       162        18      -7.252826   NewTS=>36
            3       163        19      -7.278562     Old=>7
            3       164        19      -7.271255     Old=>15
            3       165        19      -7.252826   OldTS=>23
            3       166        20      -7.278562     Old=>11
            3       167        20      -7.271255     Old=>19
            3       168        20      -7.252826   OldTS=>27
            3       169        21      -7.278562     Old=>1
            3       170        21      -7.271255     Old=>2
            3       171        21      -7.252826   OldTS=>3
            3       172        22      -7.278562     Old=>10
            3       173        22      -7.271255     Old=>18
            3       174        22      -7.252826   OldTS=>26
            3       175        23      -7.278562     Old=>5
            3       176        23      -7.271255     Old=>13
            3       177        23      -7.252826   OldTS=>21
            3       178        24      -7.278562     Old=>6
            3       179        24      -7.271255     Old=>14
            3       180        24      -7.252826   OldTS=>22
            3       181        25      -7.278562     Old=>4
            3       182        25      -7.271255     Old=>12
            3       183        25      -7.252826   OldTS=>20
            3       184        26      -7.278562     Old=>8
            3       185        26      -7.271255     Old=>16
            3       186        26      -7.252826   OldTS=>24
            3       187        27      -7.278562     Old=>9
            3       188        27      -7.271255     Old=>17
            3       189        27      -7.252826   OldTS=>25
            3       190        28      -7.278562     Old=>9
            3       191        28      -7.271255     Old=>15
            3       192        28      -7.252826   NewTS=>37
            3       193        29      -7.278562     Old=>10
            3       194        29      -7.271255     Old=>19
            3       195        29      -7.252826   NewTS=>38
            3       196        30      -7.278562     Old=>11
            3       197        30      -7.271255     Old=>2
            3       198        30      -7.252826   NewTS=>39
            3       199        31      -7.278562     Old=>1
            3       200        31      -7.271255     Old=>18
            3       201        31      -7.252826   NewTS=>40
            3       202        32      -7.278562     Old=>4
            3       203        32      -7.271255     Old=>13
            3       204        32      -7.252826   NewTS=>41
            3       205        33      -7.278562     Old=>5
            3       206        33      -7.271255     Old=>14
            3       207        33      -7.252826   NewTS=>42
            3       208        34      -7.278562     Old=>6
            3       209        34      -7.271255     Old=>12
            3       210        34      -7.252826   NewTS=>43
            3       211        35      -7.278562     Old=>7
            3       212        35      -7.271255     Old=>16
            3       213        35      -7.252826   NewTS=>44
            3       214        36      -7.278562     Old=>8
            3       215        36      -7.271255     Old=>17
            3       216        36      -7.252826   NewTS=>45
            3       217        37      -7.278562     Old=>1
            3       218        37      -7.271255     Old=>18
            3       219        37      -7.252826   OldTS=>40
            3       220        38      -7.278562     Old=>4
            3       221        38      -7.271255     Old=>13
            3       222        38      -7.252826   OldTS=>41
            3       223        39      -7.278562     Old=>5
            3       224        39      -7.271255     Old=>14
            3       225        39      -7.252826   OldTS=>42
            3       226        40      -7.278562     Old=>6
            3       227        40      -7.271255     Old=>12
            3       228        40      -7.252826   OldTS=>43
            3       229        41      -7.278562     Old=>7
            3       230        41      -7.271255     Old=>16
            3       231        41      -7.252826   OldTS=>44
            3       232        42      -7.278562     Old=>8
            3       233        42      -7.271255     Old=>17
            3       234        42      -7.252826   OldTS=>45
            3       235        43      -7.278562     Old=>9
            3       236        43      -7.271255     Old=>15
            3       237        43      -7.252826   OldTS=>37
            3       238        44      -7.278562     Old=>10
            3       239        44      -7.271255     Old=>19
            3       240        44      -7.252826   OldTS=>38
            3       241        45      -7.278562     Old=>11
            3       242        45      -7.271255     Old=>2
            3       243        45      -7.252826   OldTS=>39
            3       244        46      -7.278562     Old=>7
            3       245        46      -7.271255     Old=>18
            3       246        46      -7.252826   OldTS=>35
            3       247        47      -7.278562     Old=>11
            3       248        47      -7.271255     Old=>13
            3       249        47      -7.252826   OldTS=>30
            3       250        48      -7.278562     Old=>1
            3       251        48      -7.271255     Old=>14
            3       252        48      -7.252826   OldTS=>31
            3       253        49      -7.278562     Old=>10
            3       254        49      -7.271255     Old=>12
            3       255        49      -7.252826   OldTS=>29
            3       256        50      -7.278562     Old=>5
            3       257        50      -7.271255     Old=>16
            3       258        50      -7.252826   OldTS=>33
            3       259        51      -7.278562     Old=>6
            3       260        51      -7.271255     Old=>17
            3       261        51      -7.252826   OldTS=>34
            3       262        52      -7.278562     Old=>4
            3       263        52      -7.271255     Old=>15
            3       264        52      -7.252826   OldTS=>32
            3       265        53      -7.278562     Old=>8
            3       266        53      -7.271255     Old=>19
            3       267        53      -7.252826   OldTS=>36
            3       268        54      -7.278562     Old=>9
            3       269        54      -7.271255     Old=>2
            3       270        54      -7.252826   OldTS=>28
            3       271        55                IGNORED (+z -> -z)
            3       271        56                IGNORED (+z -> -z)
            3       271        57                IGNORED (+z -> -z)
            3       271        58                IGNORED (+z -> -z)
            3       271        59                IGNORED (+z -> -z)
            3       271        60                IGNORED (+z -> -z)
            3       271        61                IGNORED (+z -> -z)
            3       271        62                IGNORED (+z -> -z)
            3       271        63                IGNORED (+z -> -z)
            3       271        64                IGNORED (+z -> -z)
            3       271        65                IGNORED (+z -> -z)
            3       271        66                IGNORED (+z -> -z)
            3       271        67                IGNORED (+z -> -z)
            3       271        68                IGNORED (+z -> -z)
            3       271        69                IGNORED (+z -> -z)
            3       271        70                IGNORED (+z -> -z)
            3       271        71                IGNORED (+z -> -z)
            3       271        72                IGNORED (+z -> -z)
            3       271        73                IGNORED (+z -> -z)
            3       271        74                IGNORED (+z -> -z)
            3       271        75                IGNORED (+z -> -z)
            3       271        76                IGNORED (+z -> -z)
            3       271        77                IGNORED (+z -> -z)
            3       271        78                IGNORED (+z -> -z)
            3       271        79                IGNORED (+z -> -z)
            3       271        80                IGNORED (+z -> -z)
            3       271        81                IGNORED (+z -> -z)
            3       271        82                IGNORED (+z -> -z)
            3       271        83                IGNORED (+z -> -z)
            3       271        84                IGNORED (+z -> -z)
            3       271        85                IGNORED (+z -> -z)
            3       271        86                IGNORED (+z -> -z)
            3       271        87                IGNORED (+z -> -z)
            3       271        88                IGNORED (+z -> -z)
            3       271        89                IGNORED (+z -> -z)
            3       271        90                IGNORED (+z -> -z)
            3       271        91                IGNORED (+z -> -z)
            3       271        92                IGNORED (+z -> -z)
            3       271        93                IGNORED (+z -> -z)
            3       271        94                IGNORED (+z -> -z)
            3       271        95                IGNORED (+z -> -z)
            3       271        96                IGNORED (+z -> -z)
            3       271        97                IGNORED (+z -> -z)
            3       271        98                IGNORED (+z -> -z)
            3       271        99                IGNORED (+z -> -z)
            3       271       100                IGNORED (+z -> -z)
            3       271       101                IGNORED (+z -> -z)
            3       271       102                IGNORED (+z -> -z)
            3       271       103                IGNORED (+z -> -z)
            3       271       104                IGNORED (+z -> -z)
            3       271       105                IGNORED (+z -> -z)
            3       271       106                IGNORED (+z -> -z)
            3       271       107                IGNORED (+z -> -z)
            3       271       108                IGNORED (+z -> -z)

----------------
Energy Landscape
----------------

        Id        Energy(a.u.)         RE(eV)   RE(kcal/mol)    Counts    Crit. point
     --------------------------------------------------------------------------------
         1           -7.278562        0.00000         0.0000        13            Min
         2           -7.271255        0.19881         4.5847        13            Min
         3           -7.252826        0.70030        16.1493        38             TS 1<-->2    
         4           -7.278562        0.00000         0.0000        12            Min
         5           -7.278562        0.00000         0.0000        12            Min
         6           -7.278562        0.00000         0.0000        12            Min
         7           -7.278562        0.00000         0.0000        12            Min
         8           -7.278562        0.00000         0.0000        12            Min
         9           -7.278562        0.00000         0.0000        12            Min
        10           -7.278562        0.00000         0.0000        12            Min
        11           -7.278562        0.00000         0.0000        12            Min
        12           -7.271255        0.19881         4.5847        12            Min
        13           -7.271255        0.19881         4.5847        12            Min
        14           -7.271255        0.19881         4.5847        12            Min
        15           -7.271255        0.19881         4.5847        12            Min
        16           -7.271255        0.19881         4.5847        12            Min
        17           -7.271255        0.19881         4.5847        12            Min
        18           -7.271255        0.19881         4.5847        12            Min
        19           -7.271255        0.19881         4.5847        12            Min
        20           -7.252826        0.70030        16.1493         2             TS 4<-->12   
        21           -7.252826        0.70030        16.1493         2             TS 5<-->13   
        22           -7.252826        0.70030        16.1493         2             TS 6<-->14   
        23           -7.252826        0.70030        16.1493         2             TS 7<-->15   
        24           -7.252826        0.70030        16.1493         2             TS 8<-->16   
        25           -7.252826        0.70030        16.1493         2             TS 9<-->17   
        26           -7.252826        0.70030        16.1493         2             TS 10<-->18  
        27           -7.252826        0.70030        16.1493         2             TS 11<-->19  
        28           -7.252826        0.70030        16.1493         2             TS 9<-->2    
        29           -7.252826        0.70030        16.1493         2             TS 10<-->12  
        30           -7.252826        0.70030        16.1493         2             TS 11<-->13  
        31           -7.252826        0.70030        16.1493         2             TS 1<-->14   
        32           -7.252826        0.70030        16.1493         2             TS 4<-->15   
        33           -7.252826        0.70030        16.1493         2             TS 5<-->16   
        34           -7.252826        0.70030        16.1493         2             TS 6<-->17   
        35           -7.252826        0.70030        16.1493         2             TS 7<-->18   
        36           -7.252826        0.70030        16.1493         2             TS 8<-->19   
        37           -7.252826        0.70030        16.1493         2             TS 9<-->15   
        38           -7.252826        0.70030        16.1493         2             TS 10<-->19  
        39           -7.252826        0.70030        16.1493         2             TS 11<-->2   
        40           -7.252826        0.70030        16.1493         2             TS 1<-->18   
        41           -7.252826        0.70030        16.1493         2             TS 4<-->13   
        42           -7.252826        0.70030        16.1493         2             TS 5<-->14   
        43           -7.252826        0.70030        16.1493         2             TS 6<-->12   
        44           -7.252826        0.70030        16.1493         2             TS 7<-->16   
        45           -7.252826        0.70030        16.1493         2             TS 8<-->17   

Number of configurations                            45
Number of local minima                              18
Number of transition states                         27
Energy range (a.u.)                           0.025736
Energy range (eV)                              0.70030
Energy range (kcal/mol)                        16.1493

Fragments
---------

Number of fragments                                  2

        Id             Formula        Energy(a.u.)              Region
     -----------------------------------------------------------------
         1                   O           -0.003993              active
         2                Pt36           -7.154286             surface

Fragmented States
-----------------

Number of fragmented states                          1

        Id           Fragments        Energy(a.u.)         RE(eV)   RE(kcal/mol)
     ---------------------------------------------------------------------------
         1                 1,2           -7.158279        3.27304        75.4782 -->1         1.07E+07:2.58E+14*
                                                                                 -->2         1.07E+07:2.31E+14 
                                                                                 -->4         1.07E+07:2.58E+14 
                                                                                 -->5         1.07E+07:2.58E+14 
                                                                                 -->6         1.07E+07:2.58E+14 
                                                                                 -->7         1.07E+07:2.58E+14 
                                                                                 -->8         1.07E+07:2.58E+14 
                                                                                 -->9         1.07E+07:2.58E+14 
                                                                                 -->10        1.07E+07:2.58E+14 
                                                                                 -->11        1.07E+07:2.58E+14 
                                                                                 -->12        1.07E+07:2.31E+14 
                                                                                 -->13        1.07E+07:2.31E+14 
                                                                                 -->14        1.07E+07:2.31E+14 
                                                                                 -->15        1.07E+07:2.31E+14 
                                                                                 -->16        1.07E+07:2.31E+14 
                                                                                 -->17        1.07E+07:2.31E+14 
                                                                                 -->18        1.07E+07:2.31E+14 
                                                                                 -->19        1.07E+07:2.31E+14 


*) Pre-exponential factors adsorption in (bar*s)^-1 and desorption in s^-1 or Hz


> Sorting Energy Landscape by Energy ...  Hola           1           1
DONE

----------------
Energy Landscape
----------------

        Id        Energy(a.u.)         RE(eV)   RE(kcal/mol)    Counts    Crit. point
     --------------------------------------------------------------------------------
         1           -7.278562        0.00000         0.0000        13            Min
         2           -7.278562        0.00000         0.0000        12            Min
         3           -7.278562        0.00000         0.0000        12            Min
         4           -7.278562        0.00000         0.0000        12            Min
         5           -7.278562        0.00000         0.0000        12            Min
         6           -7.278562        0.00000         0.0000        12            Min
         7           -7.278562        0.00000         0.0000        12            Min
         8           -7.278562        0.00000         0.0000        12            Min
         9           -7.278562        0.00000         0.0000        12            Min
        10           -7.271255        0.19881         4.5847        13            Min
        11           -7.271255        0.19881         4.5847        12            Min
        12           -7.271255        0.19881         4.5847        12            Min
        13           -7.271255        0.19881         4.5847        12            Min
        14           -7.271255        0.19881         4.5847        12            Min
        15           -7.271255        0.19881         4.5847        12            Min
        16           -7.271255        0.19881         4.5847        12            Min
        17           -7.271255        0.19881         4.5847        12            Min
        18           -7.271255        0.19881         4.5847        12            Min
        19           -7.252826        0.70030        16.1493        38             TS 1<-->10   
        20           -7.252826        0.70030        16.1493         2             TS 4<-->12   
        21           -7.252826        0.70030        16.1493         2             TS 5<-->13   
        22           -7.252826        0.70030        16.1493         2             TS 6<-->14   
        23           -7.252826        0.70030        16.1493         2             TS 7<-->15   
        24           -7.252826        0.70030        16.1493         2             TS 8<-->16   
        25           -7.252826        0.70030        16.1493         2             TS 9<-->17   
        26           -7.252826        0.70030        16.1493         2             TS 2<-->18   
        27           -7.252826        0.70030        16.1493         2             TS 3<-->11   
        28           -7.252826        0.70030        16.1493         2             TS 9<-->10   
        29           -7.252826        0.70030        16.1493         2             TS 2<-->12   
        30           -7.252826        0.70030        16.1493         2             TS 3<-->13   
        31           -7.252826        0.70030        16.1493         2             TS 1<-->14   
        32           -7.252826        0.70030        16.1493         2             TS 4<-->15   
        33           -7.252826        0.70030        16.1493         2             TS 5<-->16   
        34           -7.252826        0.70030        16.1493         2             TS 6<-->17   
        35           -7.252826        0.70030        16.1493         2             TS 7<-->18   
        36           -7.252826        0.70030        16.1493         2             TS 8<-->11   
        37           -7.252826        0.70030        16.1493         2             TS 9<-->15   
        38           -7.252826        0.70030        16.1493         2             TS 2<-->11   
        39           -7.252826        0.70030        16.1493         2             TS 3<-->10   
        40           -7.252826        0.70030        16.1493         2             TS 1<-->18   
        41           -7.252826        0.70030        16.1493         2             TS 4<-->13   
        42           -7.252826        0.70030        16.1493         2             TS 5<-->14   
        43           -7.252826        0.70030        16.1493         2             TS 6<-->12   
        44           -7.252826        0.70030        16.1493         2             TS 7<-->16   
        45           -7.252826        0.70030        16.1493         2             TS 8<-->17   

Number of configurations                            45
Number of local minima                              18
Number of transition states                         27
Energy range (a.u.)                           0.025736
Energy range (eV)                              0.70030
Energy range (kcal/mol)                        16.1493

Fragments
---------

Number of fragments                                  2

        Id             Formula        Energy(a.u.)              Region
     -----------------------------------------------------------------
         1                   O           -0.003993              active
         2                Pt36           -7.154286             surface

Fragmented States
-----------------

Number of fragmented states                          1

        Id           Fragments        Energy(a.u.)         RE(eV)   RE(kcal/mol)
     ---------------------------------------------------------------------------
         1                 1,2           -7.158279        3.27304        75.4782 -->1         1.07E+07:2.58E+14*
                                                                                 -->10        1.07E+07:2.31E+14 
                                                                                 -->4         1.07E+07:2.58E+14 
                                                                                 -->5         1.07E+07:2.58E+14 
                                                                                 -->6         1.07E+07:2.58E+14 
                                                                                 -->7         1.07E+07:2.58E+14 
                                                                                 -->8         1.07E+07:2.58E+14 
                                                                                 -->9         1.07E+07:2.58E+14 
                                                                                 -->2         1.07E+07:2.58E+14 
                                                                                 -->3         1.07E+07:2.58E+14 
                                                                                 -->12        1.07E+07:2.31E+14 
                                                                                 -->13        1.07E+07:2.31E+14 
                                                                                 -->14        1.07E+07:2.31E+14 
                                                                                 -->15        1.07E+07:2.31E+14 
                                                                                 -->16        1.07E+07:2.31E+14 
                                                                                 -->17        1.07E+07:2.31E+14 
                                                                                 -->18        1.07E+07:2.31E+14 
                                                                                 -->11        1.07E+07:2.31E+14 


*) Pre-exponential factors adsorption in (bar*s)^-1 and desorption in s^-1 or Hz


       *******************************
       * Energy Landscape Refinement *
       *******************************

---------------------------
ReaxFF Engine configuration
---------------------------
Bond order cutoff                      0.001000
Force field                            CHONSFPtClNi.ff
Furman torsions                        F
Nonreactive                            F
Taper bond orders                      F
Torsion version                        original

   > Refining state:     1

Initial Geometry:

--------
Geometry
--------
Formula: OPt36
Atoms
  Index Symbol   x (angstrom)   y (angstrom)   z (angstrom)
      1      O     6.46856836     3.75450901     9.23664472       region=adsorbate
      2     Pt     9.24070201     6.95527267     1.31036083       region=surface
      3     Pt     9.24070201     2.15427277     1.31036083       region=surface
      4     Pt    10.62663130     4.55477272     1.31036083       region=surface
      5     Pt    12.01256059     6.95527267     1.31036083       region=surface
      6     Pt     3.69698485     2.15427277     8.10000000       region=surface
      7     Pt     5.08291414     4.55477272     8.10000000       region=surface
      8     Pt     6.46884343     6.95527267     8.10000000       region=surface
      9     Pt     6.46884343     2.15427277     8.10000000       region=surface
     10     Pt     7.85477272     4.55477272     8.10000000       region=surface
     11     Pt     9.24070201     6.95527267     8.10000000       region=surface
     12     Pt     9.24070201     2.15427277     8.10000000       region=surface
     13     Pt    10.62663130     4.55477272     8.10000000       region=surface
     14     Pt    12.01256059     6.95527267     8.10000000       region=surface
     15     Pt     5.08291414     2.95443942     5.83678694       region=surface
     16     Pt     6.46884343     5.35493937     5.83678694       region=surface
     17     Pt     7.85477272     7.75543932     5.83678694       region=surface
     18     Pt     7.85477272     2.95443942     5.83678694       region=surface
     19     Pt     9.24070201     5.35493937     5.83678694       region=surface
     20     Pt    10.62663130     7.75543932     5.83678694       region=surface
     21     Pt    10.62663130     2.95443942     5.83678694       region=surface
     22     Pt    12.01256059     5.35493937     5.83678694       region=surface
     23     Pt    13.39848987     7.75543932     5.83678694       region=surface
     24     Pt     2.31105556     1.35410612     3.57357389       region=surface
     25     Pt     3.69698485     3.75460607     3.57357389       region=surface
     26     Pt     5.08291414     6.15510602     3.57357389       region=surface
     27     Pt     5.08291414     1.35410612     3.57357389       region=surface
     28     Pt     6.46884343     3.75460607     3.57357389       region=surface
     29     Pt     7.85477272     6.15510602     3.57357389       region=surface
     30     Pt     7.85477272     1.35410612     3.57357389       region=surface
     31     Pt     9.24070201     3.75460607     3.57357389       region=surface
     32     Pt    10.62663130     6.15510602     3.57357389       region=surface
     33     Pt     3.69698485     2.15427277     1.31036083       region=surface
     34     Pt     5.08291414     4.55477272     1.31036083       region=surface
     35     Pt     6.46884343     6.95527267     1.31036083       region=surface
     36     Pt     6.46884343     2.15427277     1.31036083       region=surface
     37     Pt     7.85477272     4.55477272     1.31036083       region=surface

Lattice vectors (angstrom)
      1     8.31557575     0.00000000     0.00000000
      2     4.15778787     7.20149984     0.00000000

Unit cell area (angstrom^2)        59.88462

Total System Charge             0.00000


Relaxing 3 nuclear degrees of freedom with FIRE.
 Rigid motions settings for: FIRE
 Atomic rotations (x,y,z):     F F F
 Atomic translations (x,y,z):  F F F
 Tolerance:                    9.9999999999999995E-007
Rank   volume(%)   N atoms
   0       14.80         9
   1       13.80         9
   2       36.95        10
   3       34.45         9
Unit cell division (XYZ):    2    1    2
My region size in cell units  0.51750000  1.00000000  0.28600000
Ghost region in cell units    1.73574953  1.73574954  1.57703158
Total space in cell units     3.98899907  4.47149907  3.44006316
 Local atoms:           9 , including ghost atoms:          37
 Local Verlet list:        1231 local (incl my-other) pairs,        54 self-pairs       952 foreign my-other pairs,       974 foreign other-other pairs
Geometry optimization converged

Optimized geometry:

--------
Geometry
--------
Formula: OPt36
Atoms
  Index Symbol   x (angstrom)   y (angstrom)   z (angstrom)
      1      O     6.46856897     3.75450923     9.23664418       region=adsorbate
      2     Pt     9.24070201     6.95527267     1.31036083       region=surface
      3     Pt     9.24070201     2.15427277     1.31036083       region=surface
      4     Pt    10.62663130     4.55477272     1.31036083       region=surface
      5     Pt    12.01256059     6.95527267     1.31036083       region=surface
      6     Pt     3.69698485     2.15427277     8.10000000       region=surface
      7     Pt     5.08291414     4.55477272     8.10000000       region=surface
      8     Pt     6.46884343     6.95527267     8.10000000       region=surface
      9     Pt     6.46884343     2.15427277     8.10000000       region=surface
     10     Pt     7.85477272     4.55477272     8.10000000       region=surface
     11     Pt     9.24070201     6.95527267     8.10000000       region=surface
     12     Pt     9.24070201     2.15427277     8.10000000       region=surface
     13     Pt    10.62663130     4.55477272     8.10000000       region=surface
     14     Pt    12.01256059     6.95527267     8.10000000       region=surface
     15     Pt     5.08291414     2.95443942     5.83678694       region=surface
     16     Pt     6.46884343     5.35493937     5.83678694       region=surface
     17     Pt     7.85477272     7.75543932     5.83678694       region=surface
     18     Pt     7.85477272     2.95443942     5.83678694       region=surface
     19     Pt     9.24070201     5.35493937     5.83678694       region=surface
     20     Pt    10.62663130     7.75543932     5.83678694       region=surface
     21     Pt    10.62663130     2.95443942     5.83678694       region=surface
     22     Pt    12.01256059     5.35493937     5.83678694       region=surface
     23     Pt    13.39848987     7.75543932     5.83678694       region=surface
     24     Pt     2.31105556     1.35410612     3.57357389       region=surface
     25     Pt     3.69698485     3.75460607     3.57357389       region=surface
     26     Pt     5.08291414     6.15510602     3.57357389       region=surface
     27     Pt     5.08291414     1.35410612     3.57357389       region=surface
     28     Pt     6.46884343     3.75460607     3.57357389       region=surface
     29     Pt     7.85477272     6.15510602     3.57357389       region=surface
     30     Pt     7.85477272     1.35410612     3.57357389       region=surface
     31     Pt     9.24070201     3.75460607     3.57357389       region=surface
     32     Pt    10.62663130     6.15510602     3.57357389       region=surface
     33     Pt     3.69698485     2.15427277     1.31036083       region=surface
     34     Pt     5.08291414     4.55477272     1.31036083       region=surface
     35     Pt     6.46884343     6.95527267     1.31036083       region=surface
     36     Pt     6.46884343     2.15427277     1.31036083       region=surface
     37     Pt     7.85477272     4.55477272     1.31036083       region=surface

Lattice vectors (angstrom)
      1     8.31557575     0.00000000     0.00000000
      2     4.15778787     7.20149984     0.00000000

Unit cell area (angstrom^2)        59.88462

Total System Charge             0.00000

   > Refining state:     1 successful
 
Saving database on KF file ... OK
 
----------------
Energy Landscape
----------------

        Id        Energy(a.u.)         RE(eV)   RE(kcal/mol)    Counts    Crit. point
     --------------------------------------------------------------------------------
         1           -7.278562        0.00000         0.0000         1            Min

Number of configurations                             1
Number of local minima                               1
Number of transition states                          0
Energy range (a.u.)                           0.000000
Energy range (eV)                              0.00000
Energy range (kcal/mol)                         0.0000

   > Refining state:     2

Initial Geometry:

--------
Geometry
--------
Formula: OPt36
Atoms
  Index Symbol   x (angstrom)   y (angstrom)   z (angstrom)
      1      O     3.69670978    -1.04649089     9.23664472       region=adsorbate
      2     Pt     9.24070201     6.95527267     1.31036083       region=surface
      3     Pt     9.24070201     2.15427277     1.31036083       region=surface
      4     Pt    10.62663130     4.55477272     1.31036083       region=surface
      5     Pt    12.01256059     6.95527267     1.31036083       region=surface
      6     Pt     3.69698485     2.15427277     8.10000000       region=surface
      7     Pt     5.08291414     4.55477272     8.10000000       region=surface
      8     Pt     6.46884343     6.95527267     8.10000000       region=surface
      9     Pt     6.46884343     2.15427277     8.10000000       region=surface
     10     Pt     7.85477272     4.55477272     8.10000000       region=surface
     11     Pt     9.24070201     6.95527267     8.10000000       region=surface
     12     Pt     9.24070201     2.15427277     8.10000000       region=surface
     13     Pt    10.62663130     4.55477272     8.10000000       region=surface
     14     Pt    12.01256059     6.95527267     8.10000000       region=surface
     15     Pt     5.08291414     2.95443942     5.83678694       region=surface
     16     Pt     6.46884343     5.35493937     5.83678694       region=surface
     17     Pt     7.85477272     7.75543932     5.83678694       region=surface
     18     Pt     7.85477272     2.95443942     5.83678694       region=surface
     19     Pt     9.24070201     5.35493937     5.83678694       region=surface
     20     Pt    10.62663130     7.75543932     5.83678694       region=surface
     21     Pt    10.62663130     2.95443942     5.83678694       region=surface
     22     Pt    12.01256059     5.35493937     5.83678694       region=surface
     23     Pt    13.39848987     7.75543932     5.83678694       region=surface
     24     Pt     2.31105556     1.35410612     3.57357389       region=surface
     25     Pt     3.69698485     3.75460607     3.57357389       region=surface
     26     Pt     5.08291414     6.15510602     3.57357389       region=surface
     27     Pt     5.08291414     1.35410612     3.57357389       region=surface
     28     Pt     6.46884343     3.75460607     3.57357389       region=surface
     29     Pt     7.85477272     6.15510602     3.57357389       region=surface
     30     Pt     7.85477272     1.35410612     3.57357389       region=surface
     31     Pt     9.24070201     3.75460607     3.57357389       region=surface
     32     Pt    10.62663130     6.15510602     3.57357389       region=surface
     33     Pt     3.69698485     2.15427277     1.31036083       region=surface
     34     Pt     5.08291414     4.55477272     1.31036083       region=surface
     35     Pt     6.46884343     6.95527267     1.31036083       region=surface
     36     Pt     6.46884343     2.15427277     1.31036083       region=surface
     37     Pt     7.85477272     4.55477272     1.31036083       region=surface

Lattice vectors (angstrom)
      1     8.31557575     0.00000000     0.00000000
      2     4.15778787     7.20149984     0.00000000

Unit cell area (angstrom^2)        59.88462

Total System Charge             0.00000


Relaxing 3 nuclear degrees of freedom with FIRE.
 Rigid motions settings for: FIRE
 Atomic rotations (x,y,z):     F F F
 Atomic translations (x,y,z):  F F F
 Tolerance:                    9.9999999999999995E-007
Rank   volume(%)   N atoms
   0       14.80         9
   1       13.80         9
   2       36.95        10
   3       34.45         9
 Local atoms:           9 , including ghost atoms:          37
 Local Verlet list:        1230 local (incl my-other) pairs,        54 self-pairs       953 foreign my-other pairs,       974 foreign other-other pairs
Geometry optimization converged

Optimized geometry:

--------
Geometry
--------
Formula: OPt36
Atoms
  Index Symbol   x (angstrom)   y (angstrom)   z (angstrom)
      1      O     3.69671039    -1.04649067     9.23664418       region=adsorbate
      2     Pt     9.24070201     6.95527267     1.31036083       region=surface
      3     Pt     9.24070201     2.15427277     1.31036083       region=surface
      4     Pt    10.62663130     4.55477272     1.31036083       region=surface
      5     Pt    12.01256059     6.95527267     1.31036083       region=surface
      6     Pt     3.69698485     2.15427277     8.10000000       region=surface
      7     Pt     5.08291414     4.55477272     8.10000000       region=surface
      8     Pt     6.46884343     6.95527267     8.10000000       region=surface
      9     Pt     6.46884343     2.15427277     8.10000000       region=surface
     10     Pt     7.85477272     4.55477272     8.10000000       region=surface
     11     Pt     9.24070201     6.95527267     8.10000000       region=surface
     12     Pt     9.24070201     2.15427277     8.10000000       region=surface
     13     Pt    10.62663130     4.55477272     8.10000000       region=surface
     14     Pt    12.01256059     6.95527267     8.10000000       region=surface
     15     Pt     5.08291414     2.95443942     5.83678694       region=surface
     16     Pt     6.46884343     5.35493937     5.83678694       region=surface
     17     Pt     7.85477272     7.75543932     5.83678694       region=surface
     18     Pt     7.85477272     2.95443942     5.83678694       region=surface
     19     Pt     9.24070201     5.35493937     5.83678694       region=surface
     20     Pt    10.62663130     7.75543932     5.83678694       region=surface
     21     Pt    10.62663130     2.95443942     5.83678694       region=surface
     22     Pt    12.01256059     5.35493937     5.83678694       region=surface
     23     Pt    13.39848987     7.75543932     5.83678694       region=surface
     24     Pt     2.31105556     1.35410612     3.57357389       region=surface
     25     Pt     3.69698485     3.75460607     3.57357389       region=surface
     26     Pt     5.08291414     6.15510602     3.57357389       region=surface
     27     Pt     5.08291414     1.35410612     3.57357389       region=surface
     28     Pt     6.46884343     3.75460607     3.57357389       region=surface
     29     Pt     7.85477272     6.15510602     3.57357389       region=surface
     30     Pt     7.85477272     1.35410612     3.57357389       region=surface
     31     Pt     9.24070201     3.75460607     3.57357389       region=surface
     32     Pt    10.62663130     6.15510602     3.57357389       region=surface
     33     Pt     3.69698485     2.15427277     1.31036083       region=surface
     34     Pt     5.08291414     4.55477272     1.31036083       region=surface
     35     Pt     6.46884343     6.95527267     1.31036083       region=surface
     36     Pt     6.46884343     2.15427277     1.31036083       region=surface
     37     Pt     7.85477272     4.55477272     1.31036083       region=surface

Lattice vectors (angstrom)
      1     8.31557575     0.00000000     0.00000000
      2     4.15778787     7.20149984     0.00000000

Unit cell area (angstrom^2)        59.88462

Total System Charge             0.00000

   > Refining state:     2 successful
 
Saving database on KF file ... OK
 
----------------
Energy Landscape
----------------

        Id        Energy(a.u.)         RE(eV)   RE(kcal/mol)    Counts    Crit. point
     --------------------------------------------------------------------------------
         1           -7.278562        0.00000         0.0000         1            Min
         2           -7.278562        0.00000         0.0000         1            Min

Number of configurations                             2
Number of local minima                               2
Number of transition states                          0
Energy range (a.u.)                           0.000000
Energy range (eV)                              0.00000
Energy range (kcal/mol)                         0.0000

   > Refining state:     3

Initial Geometry:

--------
Geometry
--------
Formula: OPt36
Atoms
  Index Symbol   x (angstrom)   y (angstrom)   z (angstrom)
      1      O     5.08263907     1.35400906     9.23664472       region=adsorbate
      2     Pt     9.24070201     6.95527267     1.31036083       region=surface
      3     Pt     9.24070201     2.15427277     1.31036083       region=surface
      4     Pt    10.62663130     4.55477272     1.31036083       region=surface
      5     Pt    12.01256059     6.95527267     1.31036083       region=surface
      6     Pt     3.69698485     2.15427277     8.10000000       region=surface
      7     Pt     5.08291414     4.55477272     8.10000000       region=surface
      8     Pt     6.46884343     6.95527267     8.10000000       region=surface
      9     Pt     6.46884343     2.15427277     8.10000000       region=surface
     10     Pt     7.85477272     4.55477272     8.10000000       region=surface
     11     Pt     9.24070201     6.95527267     8.10000000       region=surface
     12     Pt     9.24070201     2.15427277     8.10000000       region=surface
     13     Pt    10.62663130     4.55477272     8.10000000       region=surface
     14     Pt    12.01256059     6.95527267     8.10000000       region=surface
     15     Pt     5.08291414     2.95443942     5.83678694       region=surface
     16     Pt     6.46884343     5.35493937     5.83678694       region=surface
     17     Pt     7.85477272     7.75543932     5.83678694       region=surface
     18     Pt     7.85477272     2.95443942     5.83678694       region=surface
     19     Pt     9.24070201     5.35493937     5.83678694       region=surface
     20     Pt    10.62663130     7.75543932     5.83678694       region=surface
     21     Pt    10.62663130     2.95443942     5.83678694       region=surface
     22     Pt    12.01256059     5.35493937     5.83678694       region=surface
     23     Pt    13.39848987     7.75543932     5.83678694       region=surface
     24     Pt     2.31105556     1.35410612     3.57357389       region=surface
     25     Pt     3.69698485     3.75460607     3.57357389       region=surface
     26     Pt     5.08291414     6.15510602     3.57357389       region=surface
     27     Pt     5.08291414     1.35410612     3.57357389       region=surface
     28     Pt     6.46884343     3.75460607     3.57357389       region=surface
     29     Pt     7.85477272     6.15510602     3.57357389       region=surface
     30     Pt     7.85477272     1.35410612     3.57357389       region=surface
     31     Pt     9.24070201     3.75460607     3.57357389       region=surface
     32     Pt    10.62663130     6.15510602     3.57357389       region=surface
     33     Pt     3.69698485     2.15427277     1.31036083       region=surface
     34     Pt     5.08291414     4.55477272     1.31036083       region=surface
     35     Pt     6.46884343     6.95527267     1.31036083       region=surface
     36     Pt     6.46884343     2.15427277     1.31036083       region=surface
     37     Pt     7.85477272     4.55477272     1.31036083       region=surface

Lattice vectors (angstrom)
      1     8.31557575     0.00000000     0.00000000
      2     4.15778787     7.20149984     0.00000000

Unit cell area (angstrom^2)        59.88462

Total System Charge             0.00000


Relaxing 3 nuclear degrees of freedom with FIRE.
 Rigid motions settings for: FIRE
 Atomic rotations (x,y,z):     F F F
 Atomic translations (x,y,z):  F F F
 Tolerance:                    9.9999999999999995E-007
Rank   volume(%)   N atoms
   0       14.80         9
   1       13.80         9
   2       36.95        10
   3       34.45         9
 Local atoms:           9 , including ghost atoms:          37
 Local Verlet list:        1231 local (incl my-other) pairs,        54 self-pairs       952 foreign my-other pairs,       974 foreign other-other pairs
Geometry optimization converged

Optimized geometry:

--------
Geometry
--------
Formula: OPt36
Atoms
  Index Symbol   x (angstrom)   y (angstrom)   z (angstrom)
      1      O     5.08263968     1.35400928     9.23664418       region=adsorbate
      2     Pt     9.24070201     6.95527267     1.31036083       region=surface
      3     Pt     9.24070201     2.15427277     1.31036083       region=surface
      4     Pt    10.62663130     4.55477272     1.31036083       region=surface
      5     Pt    12.01256059     6.95527267     1.31036083       region=surface
      6     Pt     3.69698485     2.15427277     8.10000000       region=surface
      7     Pt     5.08291414     4.55477272     8.10000000       region=surface
      8     Pt     6.46884343     6.95527267     8.10000000       region=surface
      9     Pt     6.46884343     2.15427277     8.10000000       region=surface
     10     Pt     7.85477272     4.55477272     8.10000000       region=surface
     11     Pt     9.24070201     6.95527267     8.10000000       region=surface
     12     Pt     9.24070201     2.15427277     8.10000000       region=surface
     13     Pt    10.62663130     4.55477272     8.10000000       region=surface
     14     Pt    12.01256059     6.95527267     8.10000000       region=surface
     15     Pt     5.08291414     2.95443942     5.83678694       region=surface
     16     Pt     6.46884343     5.35493937     5.83678694       region=surface
[...]
 Pt      10.62663121559661       7.75543922207338       5.83678694000003
 Pt      10.62663121767304       2.95443946946609       5.83678694000003
 Pt      12.01256046433971       5.35493934509936       5.83678694000003
 Pt      13.39848970226328       7.75543922207338       5.83678694000003
 Pt       2.31105572878414       1.35410621904391       3.57357389000002
 Pt       3.69698497545081       3.75460609467718       3.57357389000002
 Pt       5.08291422211748       6.15510597031046       3.57357389000002
 Pt       5.08291422545081       1.35410621904391       3.57357389000002
 Pt       6.46884347211748       3.75460609467718       3.57357389000002
 Pt       7.85477271878414       6.15510597031046       3.57357389000002
 Pt       7.85477272211747       1.35410621904391       3.57357389000002
 Pt       9.24070196878415       3.75460609467718       3.57357389000002
 Pt      10.62663121545082       6.15510597031046       3.57357389000002
 Pt       3.69698497656192       2.15427284425500       1.31036083000003
 Pt       5.08291422322859       4.55477271988828       1.31036083000003
 Pt       6.46884346989526       6.95527259552154       1.31036083000003
 Pt       6.46884347322859       2.15427284425500       1.31036083000003
 Pt       7.85477271989526       4.55477271988828       1.31036083000003
VEC1       8.31557575000000       0.00000000000000       0.00000000000000
VEC2       4.15778787000000       7.20149984000000       0.00000000000000
37
Id 44 Energy(hartree)     -7.25282603 TS
 O        5.95745053750171       0.84919209918875       9.39387252562210
 Pt       9.24070196656193       6.95527259552154       1.31036083000003
 Pt       9.24070196989526       2.15427284425500       1.31036083000003
 Pt      10.62663121656193       4.55477271988828       1.31036083000003
 Pt      12.01256046322860       6.95527259552154       1.31036083000003
 Pt       3.69698497656192       2.15427284425500       8.10000000000001
 Pt       5.08291422322859       4.55477271988828       8.10000000000001
 Pt       6.46884346989526       6.95527259552154       8.10000000000001
 Pt       6.46884347322859       2.15427284425500       8.10000000000001
 Pt       7.85477271989526       4.55477271988828       8.10000000000001
 Pt       9.24070196656193       6.95527259552154       8.10000000000001
 Pt       9.24070196989526       2.15427284425500       8.10000000000001
 Pt      10.62663121656193       4.55477271988828       8.10000000000001
 Pt      12.01256046322860       6.95527259552154       8.10000000000001
 Pt       5.08291422433970       2.95443946946609       5.83678694000003
 Pt       6.46884347100637       5.35493934509936       5.83678694000003
 Pt       7.85477271892994       7.75543922207338       5.83678694000003
 Pt       7.85477272100637       2.95443946946609       5.83678694000003
 Pt       9.24070196767304       5.35493934509936       5.83678694000003
 Pt      10.62663121559661       7.75543922207338       5.83678694000003
 Pt      10.62663121767304       2.95443946946609       5.83678694000003
 Pt      12.01256046433971       5.35493934509936       5.83678694000003
 Pt      13.39848970226328       7.75543922207338       5.83678694000003
 Pt       2.31105572878414       1.35410621904391       3.57357389000002
 Pt       3.69698497545081       3.75460609467718       3.57357389000002
 Pt       5.08291422211748       6.15510597031046       3.57357389000002
 Pt       5.08291422545081       1.35410621904391       3.57357389000002
 Pt       6.46884347211748       3.75460609467718       3.57357389000002
 Pt       7.85477271878414       6.15510597031046       3.57357389000002
 Pt       7.85477272211747       1.35410621904391       3.57357389000002
 Pt       9.24070196878415       3.75460609467718       3.57357389000002
 Pt      10.62663121545082       6.15510597031046       3.57357389000002
 Pt       3.69698497656192       2.15427284425500       1.31036083000003
 Pt       5.08291422322859       4.55477271988828       1.31036083000003
 Pt       6.46884346989526       6.95527259552154       1.31036083000003
 Pt       6.46884347322859       2.15427284425500       1.31036083000003
 Pt       7.85477271989526       4.55477271988828       1.31036083000003
VEC1       8.31557575000000       0.00000000000000       0.00000000000000
VEC2       4.15778787000000       7.20149984000000       0.00000000000000
37
Id 45 Energy(hartree)     -7.25282603 TS
 O        9.75209476077483       5.65019190636104       9.39387250410396
 Pt       9.24070196656193       6.95527259552154       1.31036083000003
 Pt       9.24070196989526       2.15427284425500       1.31036083000003
 Pt      10.62663121656193       4.55477271988828       1.31036083000003
 Pt      12.01256046322860       6.95527259552154       1.31036083000003
 Pt       3.69698497656192       2.15427284425500       8.10000000000001
 Pt       5.08291422322859       4.55477271988828       8.10000000000001
 Pt       6.46884346989526       6.95527259552154       8.10000000000001
 Pt       6.46884347322859       2.15427284425500       8.10000000000001
 Pt       7.85477271989526       4.55477271988828       8.10000000000001
 Pt       9.24070196656193       6.95527259552154       8.10000000000001
 Pt       9.24070196989526       2.15427284425500       8.10000000000001
 Pt      10.62663121656193       4.55477271988828       8.10000000000001
 Pt      12.01256046322860       6.95527259552154       8.10000000000001
 Pt       5.08291422433970       2.95443946946609       5.83678694000003
 Pt       6.46884347100637       5.35493934509936       5.83678694000003
 Pt       7.85477271892994       7.75543922207338       5.83678694000003
 Pt       7.85477272100637       2.95443946946609       5.83678694000003
 Pt       9.24070196767304       5.35493934509936       5.83678694000003
 Pt      10.62663121559661       7.75543922207338       5.83678694000003
 Pt      10.62663121767304       2.95443946946609       5.83678694000003
 Pt      12.01256046433971       5.35493934509936       5.83678694000003
 Pt      13.39848970226328       7.75543922207338       5.83678694000003
 Pt       2.31105572878414       1.35410621904391       3.57357389000002
 Pt       3.69698497545081       3.75460609467718       3.57357389000002
 Pt       5.08291422211748       6.15510597031046       3.57357389000002
 Pt       5.08291422545081       1.35410621904391       3.57357389000002
 Pt       6.46884347211748       3.75460609467718       3.57357389000002
 Pt       7.85477271878414       6.15510597031046       3.57357389000002
 Pt       7.85477272211747       1.35410621904391       3.57357389000002
 Pt       9.24070196878415       3.75460609467718       3.57357389000002
 Pt      10.62663121545082       6.15510597031046       3.57357389000002
 Pt       3.69698497656192       2.15427284425500       1.31036083000003
 Pt       5.08291422322859       4.55477271988828       1.31036083000003
 Pt       6.46884346989526       6.95527259552154       1.31036083000003
 Pt       6.46884347322859       2.15427284425500       1.31036083000003
 Pt       7.85477271989526       4.55477271988828       1.31036083000003
VEC1       8.31557575000000       0.00000000000000       0.00000000000000
VEC2       4.15778787000000       7.20149984000000       0.00000000000000

-------------------------
Binding Sites Computation
-------------------------

> Sorting Binding Sites ... DONE


-----------------------
Binding Sites Per State
-----------------------

Number of binding sites:                            72
Number of connections:                              27

Binding sites:

   id   Label   State    Atom   Energy(a.u.)              x              y              z
    1      N9       1       1      -7.278562        9.24043        3.75451        9.23664
    2      N9       2       1      -7.278562        3.69671        3.75451        9.23664
    3      N9       3       1      -7.278562        2.31078        1.35401        9.23664
    4      N9       4       1      -7.278562        6.46857        3.75451        9.23664
    5      N9       5       1      -7.278562        7.85450        1.35401        9.23664
    6      N9       6       1      -7.278562        5.08264        6.15501        9.23664
    7      N9       7       1      -7.278562        7.85450        6.15501        9.23664
    8      N9       8       1      -7.278562       10.62636        6.15501        9.23664
    9      N9       9       1      -7.278562        5.08264        1.35401        9.23664
   10      N7      10       1      -7.271255        5.08315        2.95458        9.22891
   11      N7      11       1      -7.271255        3.69722        0.55408        9.22891
   12      N7      12       1      -7.271255        2.31129        2.95458        9.22891
   13      N7      13       1      -7.271255        0.92536        0.55408        9.22891
   14      N7      14       1      -7.271255        6.46908        5.35508        9.22891
   15      N7      15       1      -7.271255        7.85501        2.95458        9.22891
   16      N7      16       1      -7.271255        3.69722        5.35508        9.22891
   17      N7      17       1      -7.271255        6.46908        0.55408        9.22891
   18      N7      18       1      -7.271255        9.24094        5.35508        9.22891
   19      N9       3       1      -7.278562        2.31078        1.35401        9.23664
   20      N7      13       1      -7.271255        0.92536        0.55408        9.22891
   21      N9       2       1      -7.278562        3.69671        3.75451        9.23664
   22      N7      10       1      -7.271255        5.08315        2.95458        9.22891
   23      N9       9       1      -7.278562        5.08264        1.35401        9.23664
   24      N7      10       1      -7.271255        5.08315        2.95458        9.22891
   25      N9       9       1      -7.278562        5.08264        1.35401        9.23664
   26      N7      11       1      -7.271255        3.69722        0.55408        9.22891
   27      N9       2       1      -7.278562        3.69671        3.75451        9.23664
   28      N7      12       1      -7.271255        2.31129        2.95458        9.22891
   29      N9       7       1      -7.278562        7.85450        6.15501        9.23664
   30      N7      11       1      -7.271255        3.69722        0.55408        9.22891
   31      N9       1       1      -7.278562        9.24043        3.75451        9.23664
   32      N7      12       1      -7.271255        2.31129        2.95458        9.22891
   33      N9       6       1      -7.278562        5.08264        6.15501        9.23664
   34      N7      14       1      -7.271255        6.46908        5.35508        9.22891
   35      N9       3       1      -7.278562        2.31078        1.35401        9.23664
   36      N7      11       1      -7.271255        3.69722        0.55408        9.22891
   37      N9       5       1      -7.278562        7.85450        1.35401        9.23664
   38      N7      15       1      -7.271255        7.85501        2.95458        9.22891
   39      N9       3       1      -7.278562        2.31078        1.35401        9.23664
   40      N7      12       1      -7.271255        2.31129        2.95458        9.22891
   41      N9       4       1      -7.278562        6.46857        3.75451        9.23664
   42      N7      10       1      -7.271255        5.08315        2.95458        9.22891
   43      N9       8       1      -7.278562       10.62636        6.15501        9.23664
   44      N7      16       1      -7.271255        3.69722        5.35508        9.22891
   45      N9       5       1      -7.278562        7.85450        1.35401        9.23664
   46      N7      13       1      -7.271255        0.92536        0.55408        9.22891
   47      N9       6       1      -7.278562        5.08264        6.15501        9.23664
   48      N7      13       1      -7.271255        0.92536        0.55408        9.22891
   49      N9       6       1      -7.278562        5.08264        6.15501        9.23664
   50      N7      16       1      -7.271255        3.69722        5.35508        9.22891
   51      N9       8       1      -7.278562       10.62636        6.15501        9.23664
   52      N7      17       1      -7.271255        6.46908        0.55408        9.22891
   53      N9       5       1      -7.278562        7.85450        1.35401        9.23664
   54      N7      17       1      -7.271255        6.46908        0.55408        9.22891
   55      N9       7       1      -7.278562        7.85450        6.15501        9.23664
   56      N7      14       1      -7.271255        6.46908        5.35508        9.22891
   57      N9       1       1      -7.278562        9.24043        3.75451        9.23664
   58      N7      15       1      -7.271255        7.85501        2.95458        9.22891
   59      N9       4       1      -7.278562        6.46857        3.75451        9.23664
   60      N7      14       1      -7.271255        6.46908        5.35508        9.22891
   61      N9       4       1      -7.278562        6.46857        3.75451        9.23664
   62      N7      15       1      -7.271255        7.85501        2.95458        9.22891
   63      N9       1       1      -7.278562        9.24043        3.75451        9.23664
   64      N7      18       1      -7.271255        9.24094        5.35508        9.22891
   65      N9       2       1      -7.278562        3.69671        3.75451        9.23664
   66      N7      16       1      -7.271255        3.69722        5.35508        9.22891
   67      N9       7       1      -7.278562        7.85450        6.15501        9.23664
   68      N7      18       1      -7.271255        9.24094        5.35508        9.22891
   69      N9       9       1      -7.278562        5.08264        1.35401        9.23664
   70      N7      17       1      -7.271255        6.46908        0.55408        9.22891
   71      N9       8       1      -7.278562       10.62636        6.15501        9.23664
   72      N7      18       1      -7.271255        9.24094        5.35508        9.22891

Connections:

   id  Source  Target       ld
    1      19      20     0  0
    2      21      22     0  0
    3      23      24     0  0
    4      25      26     0  0
    5      27      28     0  0
    6      29      30     0  1
    7      31      32     1  0
    8      33      34     0  0
    9      35      36     0  0
   10      37      38     0  0
   11      39      40     0  0
   12      41      42     0  0
   13      43      44     1  0
   14      45      46     1  0
   15      47      48     0  1
   16      49      50     0  0
   17      51      52     0  1
   18      53      54     0  0
   19      55      56     0  0
   20      57      58     0  0
   21      59      60     0  0
   22      61      62     0  0
   23      63      64     0  0
   24      65      66     0  0
   25      67      68     0  0
   26      69      70     0  0
   27      71      72     0  0

-------------
Binding Sites
-------------

Number of binding sites:                            18
Number of connections:                              27

Binding sites:

   id   Label   Aver.E(a.u.)  Stdev.E(a.u.)              x              y              z     Parents
    1      N7      -7.271255       0.000000        0.92536        0.55408        9.22891     13(1)
    2      N9      -7.278562       0.000000        2.31078        1.35401        9.23664     3(1)
    3      N7      -7.271255       0.000000        2.31129        2.95458        9.22891     12(1)
    4      N7      -7.271255       0.000000        3.69722        0.55408        9.22891     11(1)
    5      N9      -7.278562       0.000000        3.69671        3.75451        9.23664     2(1)
    6      N7      -7.271255       0.000000        3.69722        5.35508        9.22891     16(1)
    7      N9      -7.278562       0.000000        5.08264        1.35401        9.23664     9(1)
    8      N7      -7.271255       0.000000        5.08315        2.95458        9.22891     10(1)
    9      N9      -7.278562       0.000000        5.08264        6.15501        9.23664     6(1)
   10      N7      -7.271255       0.000000        6.46908        0.55408        9.22891     17(1)
   11      N9      -7.278562       0.000000        6.46857        3.75451        9.23664     4(1)
   12      N7      -7.271255       0.000000        6.46908        5.35508        9.22891     14(1)
   13      N9      -7.278562       0.000000        7.85450        1.35401        9.23664     5(1)
   14      N7      -7.271255       0.000000        7.85501        2.95458        9.22891     15(1)
   15      N9      -7.278562       0.000000        7.85450        6.15501        9.23664     7(1)
   16      N9      -7.278562       0.000000        9.24043        3.75451        9.23664     1(1)
   17      N7      -7.271255       0.000000        9.24094        5.35508        9.22891     18(1)
   18      N9      -7.278562       0.000000       10.62636        6.15501        9.23664     8(1)

Binding sites (fractional):

   id   Label   Aver.E(a.u.)  Stdev.E(a.u.)              x              y              z     Parents
    1      N7      -7.271255       0.000000        0.07281        0.07694       17.44011     13(1)
    2      N9      -7.278562       0.000000        0.18388        0.18802       17.45473     3(1)
    3      N7      -7.271255       0.000000        0.07281        0.41027       17.44011     12(1)
    4      N7      -7.271255       0.000000        0.40614        0.07694       17.44011     11(1)
    5      N9      -7.278562       0.000000        0.18388        0.52135       17.45473     2(1)
    6      N7      -7.271255       0.000000        0.07281        0.74361       17.44011     16(1)
    7      N9      -7.278562       0.000000        0.51721        0.18802       17.45473     9(1)
    8      N7      -7.271255       0.000000        0.40614        0.41027       17.44011     10(1)
    9      N9      -7.278562       0.000000        0.18388        0.85468       17.45473     6(1)
   10      N7      -7.271255       0.000000        0.73948        0.07694       17.44011     17(1)
   11      N9      -7.278562       0.000000        0.51721        0.52135       17.45473     4(1)
   12      N7      -7.271255       0.000000        0.40614        0.74361       17.44011     14(1)
   13      N9      -7.278562       0.000000        0.85054        0.18802       17.45473     5(1)
   14      N7      -7.271255       0.000000        0.73948        0.41027       17.44011     15(1)
   15      N9      -7.278562       0.000000        0.51721        0.85468       17.45473     7(1)
   16      N9      -7.278562       0.000000        0.85054        0.52135       17.45473     1(1)
   17      N7      -7.271255       0.000000        0.73948        0.74361       17.44011     18(1)
   18      N9      -7.278562       0.000000        0.85054        0.85468       17.45473     8(1)

Connections:

   id  Source  Target       ld
    1       2       1     0  0
    2       5       8     0  0
    3       7       8     0  0
    4       7       4     0  0
    5       5       3     0  0
    6      15       4     0  1
    7      16       3     1  0
    8       9      12     0  0
    9       2       4     0  0
   10      13      14     0  0
   11       2       3     0  0
   12      11       8     0  0
   13      18       6     1  0
   14      13       1     1  0
   15       9       1     0  1
   16       9       6     0  0
   17      18      10     0  1
   18      13      10     0  0
   19      15      12     0  0
   20      16      14     0  0
   21      11      12     0  0
   22      11      14     0  0
   23      16      17     0  0
   24       5       6     0  0
   25      15      17     0  0
   26       7      10     0  0
   27      18      17     0  0

AMS application finished. Exiting.
NORMAL TERMINATION
     Total cpu time:      26.37
  Total system time:       1.84
 Total elapsed time:      29.40
