

 Parallel Execution: Process Information
 ==============================================================================
 Rank   Node Name                              NodeID   MyNodeRank  NodeMaster
    0   aguirre-XPS-13-7390                       0          0          0
    1   aguirre-XPS-13-7390                       0          1         -1
    2   aguirre-XPS-13-7390                       0          2         -1
    3   aguirre-XPS-13-7390                       0          3         -1
 ==============================================================================


May use up to 7486MB of RAM as shared memory on node 0
Floating license: not using directory 
Floating license: not using directory 
Floating license: not using directory 
Floating license: not using directory 

 *******************************************************************************
 *                                                                             *
 *  --------------------------------                                           *
 *   Amsterdam Modeling Suite (AMS)              2022.202                      *
 *  --------------------------------                                           *
 *                                               r103190 2022-04-06            *
 *                                                                             *
 *                                                                             *
 *                              =================                              *
 *                              |               |                              *
 *                              |     A M S     |                              *
 *                              |               |                              *
 *                              =================                              *
 *                                                                             *
 *                                                                             *
 *   Online information and documentation:  https://www.scm.com/support/       *
 *   E-mail:  support@scm.com   info@scm.com                                   *
 *                                                                             *
 *   Scientific publications using AMS results must be properly referenced     *
 *   See the User Manuals (or the web site) for recommended citations          *
 *   The terms and conditions of the End User License Agreement apply to       *
 *   the use of AMS, https://www.scm.com/license-terms/                        *
 *                                                                             *
 ***********************  x86_64_linux_gnu7 / intelmpi  ************************
 
 Licensed to: Dr. Nestor Aguirre Castiblanco  / SCM / Amsterdam / NETHERLANDS 2022-01-24 09:33:25
 SCM User ID: u22021
  
 AMS 2022.202  RunTime: Apr11-2022 11:37:38  ShM Nodes: 1  Procs: 4

 AMS jobname: BindingSites
 AMS jobid  : 228184626

 Start   directory: /home/aguirre/Develop/pyzacros/test_RKFLoader/BindingSites/
 Results directory: /home/aguirre/Develop/pyzacros/test_RKFLoader/BindingSites/
 Scratch directory: /scratch/aguirre/amstmp_BindingSites_kid0.228184626/


 Communication costs MPI_COMM_WORLD:      0.675 usec per message,   0.0087 usec per 8-byte item
 Communication costs for intra-node:      0.612 usec per message,   0.0089 usec per 8-byte item

 RNG seed: -1419316520 -616730164 -1325881803 -677428104 1049092959 -509446592 -561908151 -255917093
 MPI rank    0: Number of processors available to this process:      2
 MPI rank    0: Default max number of OpenMP threads:                2
 MPI rank    0: The OMP_NUM_THREADS environment variable is not set!
 MPI rank    0: Restrict max number of OpenMP threads to:            1
Force field identifier: Reactive MD-force field: C/H/O/N/S/F/Pt/
 Triple bond stabilization enabled for C-O only
 Non-bonding interaction type[nonbontype]:
 No inner wall, shielding
 Warning:changed vval3 to valf for X 

Reference geometry:
   Note: All states are going to be aligned with this reference

--------
Geometry
--------
Formula: Pt36
Atoms
  Index Symbol   x (angstrom)   y (angstrom)   z (angstrom)
      1     Pt     8.31521714     4.80239136     7.78926430       region=surface
      2     Pt     5.54298786     0.00160612     7.79128800       region=surface
      3     Pt     6.92910250     2.40199874     7.79027615       region=surface
      4     Pt    11.08707571     4.80244586     7.78854885       region=surface
      5     Pt     8.31484643     0.00166062     7.79057254       region=surface
      6     Pt     9.70096096     2.40178486     7.79068672       region=surface
      7     Pt     5.54335868     4.80260524     7.78885374       region=surface
      8     Pt     2.77112940     0.00182001     7.79087743       region=surface
      9     Pt     4.15724404     2.40221263     7.78986559       region=surface
     10     Pt     9.70154331     5.60130339     5.52585419       region=surface
     11     Pt     6.92931403     0.80051815     5.52787789       region=surface
     12     Pt     8.31542867     3.20091077     5.52686604       region=surface
     13     Pt     4.15782639     5.60173116     5.52503306       region=surface
     14     Pt     1.38559711     0.80094593     5.52705675       region=surface
     15     Pt     2.77171175     3.20133854     5.52604491       region=surface
     16     Pt     6.92968485     5.60151727     5.52544363       region=surface
     17     Pt     4.15745557     0.80073204     5.52746732       region=surface
     18     Pt     5.54357021     3.20112466     5.52645547       region=surface
     19     Pt     6.92989639     4.00003668     3.26303536       region=surface
     20     Pt     8.31601103     6.40042930     3.26202352       region=surface
     21     Pt     5.54378174     1.59964406     3.26404721       region=surface
     22     Pt     9.70175484     3.99982280     3.26344593       region=surface
     23     Pt    11.08786948     6.40021541     3.26243408       region=surface
     24     Pt     8.31564020     1.59943018     3.26445778       region=surface
     25     Pt     4.15803792     4.00025057     3.26262480       region=surface
     26     Pt     5.54415256     6.40064318     3.26161295       region=surface
     27     Pt     2.77192328     1.59985795     3.26363664       region=surface
     28     Pt     1.38639089     2.39871548     1.00094199       region=surface
     29     Pt     5.54436409     4.79916260     0.99921469       region=surface
     30     Pt     6.93024583     7.19969029     1.00043291       region=surface
     31     Pt     4.15824945     2.39876998     1.00022653       region=surface
     32     Pt     8.31622256     4.79894871     0.99962525       region=surface
     33     Pt     9.70210429     7.19947641     1.00084348       region=surface
     34     Pt     6.93010792     2.39855609     1.00063710       region=surface
     35     Pt     2.77250564     4.79937648     0.99880412       region=surface
     36     Pt     4.15838737     7.19990418     1.00002234       region=surface

Lattice vectors (angstrom)
      1     8.31557575     0.00000000     0.00000000
      2     4.15778787     7.20149984     0.00000000

Unit cell area (angstrom^2)        59.88462

Total System Charge             0.00000


Restoring energy landscape from: /home/aguirre/Develop/pyzacros/test_RKFLoader/PESExploration

-------------------------
Checking Duplicate States
-------------------------

      Id         Energy      DB
   ----------------------------
   Local minima
       1      -7.278632     New
       2      -7.278618     New
       3      -7.278615     New
       4      -7.278614     New
       5      -7.278607     New
       6      -7.278599     New
       7      -7.278596     New
       8      -7.278585     New
       9      -7.278577     New
      10      -7.271337     New
      11      -7.271322     New
      12      -7.271315     New
      13      -7.271311     New
      14      -7.271304     New
      15      -7.271295     New
      16      -7.271282     New
      17      -7.271276     New
      18      -7.271275     New
   Transition states
      19      -7.252908   NewTS 10 <--> 6
      20      -7.252901   NewTS 4 <--> 11
      21      -7.252890   NewTS 5 <--> 11
      22      -7.252887   NewTS 2 <--> 13
      23      -7.252887   NewTS 8 <--> 10
      24      -7.252884   NewTS 9 <--> 12
      25      -7.252882   NewTS 3 <--> 13
      26      -7.252879   NewTS 13 <--> 5
      27      -7.252879   NewTS 15 <--> 1
      28      -7.252876   NewTS 6 <--> 12
      29      -7.252875   NewTS 14 <--> 9
      30      -7.252871   NewTS 3 <--> 15
      31      -7.252869   NewTS 15 <--> 4
      32      -7.252868   NewTS 14 <--> 8
      33      -7.252863   NewTS 5 <--> 10
      34      -7.252862   NewTS 7 <--> 11
      35      -7.252857   NewTS 16 <--> 7
      36      -7.252855   NewTS 18 <--> 2
      37      -7.252853   NewTS 6 <--> 17
      38      -7.252852   NewTS 1 <--> 17
      39      -7.252851   NewTS 8 <--> 16
      40      -7.252850   NewTS 3 <--> 14
      41      -7.252835   NewTS 4 <--> 12
      42      -7.252833   NewTS 17 <--> 2
      43      -7.252833   NewTS 1 <--> 16
      44      -7.252832   NewTS 9 <--> 18
      45      -7.252822   NewTS 18 <--> 7

> Sorting Energy Landscape by Energy ... DONE

----------------
Energy Landscape
----------------

        Id        Energy(a.u.)         RE(eV)   RE(kcal/mol)    Counts    Crit. point
     --------------------------------------------------------------------------------
         1           -7.278632        0.00000         0.0000         1            Min
         2           -7.278618        0.00038         0.0088         2            Min
         3           -7.278615        0.00046         0.0106         1            Min
         4           -7.278614        0.00050         0.0114         1            Min
         5           -7.278607        0.00068         0.0156         1            Min
         6           -7.278599        0.00088         0.0203         1            Min
         7           -7.278596        0.00098         0.0225         2            Min
         8           -7.278585        0.00127         0.0294         1            Min
         9           -7.278577        0.00148         0.0341         1            Min
        10           -7.271337        0.19849         4.5773         2            Min
        11           -7.271322        0.19890         4.5868         3            Min
        12           -7.271315        0.19910         4.5914         3            Min
        13           -7.271311        0.19920         4.5936         2            Min
        14           -7.271304        0.19939         4.5979         1            Min
        15           -7.271295        0.19963         4.6036         1            Min
        16           -7.271282        0.20000         4.6120         2            Min
        17           -7.271276        0.20015         4.6155         2            Min
        18           -7.271275        0.20018         4.6162         1            Min
        19           -7.252908        0.69999        16.1421         6             TS 10<-->6      1.72E+13:1.92E+13*  
        20           -7.252901        0.70017        16.1464        15             TS 4<-->11      1.92E+13:1.72E+13   
        21           -7.252890        0.70048        16.1533         8             TS 5<-->11      1.92E+13:1.73E+13   
        22           -7.252887        0.70054        16.1549         8             TS 2<-->13      1.92E+13:1.73E+13   
        23           -7.252887        0.70056        16.1553        13             TS 8<-->10      1.92E+13:1.72E+13   
        24           -7.252884        0.70064        16.1572        16             TS 9<-->12      1.92E+13:1.72E+13   
        25           -7.252882        0.70068        16.1581         9             TS 3<-->13      1.92E+13:1.72E+13   
        26           -7.252879        0.70076        16.1599         8             TS 13<-->5      1.72E+13:1.92E+13   
        27           -7.252879        0.70078        16.1603        13             TS 15<-->1      1.73E+13:1.92E+13   
        28           -7.252876        0.70085        16.1619         7             TS 6<-->12      1.92E+13:1.72E+13   
        29           -7.252875        0.70087        16.1623         7             TS 14<-->9      1.72E+13:1.92E+13   
        30           -7.252871        0.70100        16.1654         8             TS 3<-->15      1.92E+13:1.72E+13   
        31           -7.252869        0.70104        16.1664        11             TS 15<-->4      1.72E+13:1.92E+13   
        32           -7.252868        0.70106        16.1668         9             TS 14<-->8      1.72E+13:1.92E+13   
        33           -7.252863        0.70121        16.1703         8             TS 5<-->10      1.92E+13:1.72E+13   
        34           -7.252862        0.70124        16.1710         5             TS 7<-->11      1.92E+13:1.73E+13   
        35           -7.252857        0.70137        16.1740         6             TS 16<-->7      1.72E+13:1.92E+13   
        36           -7.252855        0.70142        16.1751         9             TS 18<-->2      1.72E+13:1.92E+13   
        37           -7.252853        0.70146        16.1761         6             TS 6<-->17      1.92E+13:1.72E+13   
        38           -7.252852        0.70151        16.1771         5             TS 1<-->17      1.92E+13:1.72E+13   
        39           -7.252851        0.70154        16.1779         6             TS 8<-->16      1.92E+13:1.72E+13   
        40           -7.252850        0.70157        16.1786        12             TS 3<-->14      1.92E+13:1.72E+13   
        41           -7.252835        0.70196        16.1875         8             TS 4<-->12      1.92E+13:1.72E+13   
        42           -7.252833        0.70203        16.1891         5             TS 17<-->2      1.72E+13:1.92E+13   
        43           -7.252833        0.70203        16.1893         9             TS 1<-->16      1.92E+13:1.72E+13   
        44           -7.252832        0.70205        16.1897         9             TS 9<-->18      1.92E+13:1.72E+13   
        45           -7.252822        0.70233        16.1960        11             TS 18<-->7      1.72E+13:1.92E+13   

*) Pre-exponential factors forward and backward in s^-1 or Hz

Number of configurations                            45
Number of local minima                              18
Number of transition states                         27
Energy range (a.u.)                           0.025810
Energy range (eV)                              0.70233
Energy range (kcal/mol)                        16.1960


       *******************************
       *  Automated PES exploration  *
       *******************************

--------------------------
PES Exploration Parameters
--------------------------

Exploring 3 degrees of freedom

SeedStates                                1   1   2   3   4   5   6   7   8   9  10  11  12  13  14  15  16  17  18

RandomSeed                                  1182323014
Temperature                                  300.00000
FiniteDifference                               0.01000
WriteHistory                                 converged
NumExpeditions                                       1
NumExplorers                                         1
DynamicSeedStates                                    T
GenerateSymmetryImages                               F

   ProcessSearch
   -------------
   MinimizeFirst                                     T
   MinimizationOffset                          0.20000

   SaddleSearch
   ------------
   MaxIterations                                   400
   Method                                     min_mode
   MinModeMethod                                 dimer
   MaxEnergy                                  20.00000
   DisplaceMagnitude                           0.10000
   DisplaceRadius                              4.00000
   RemoveRotation                                    F
   RelaxFromSaddlePoint                              F
   DisplaceMinNorm                             0.00000
   RandomMode                                        T
   DisplaceRandomWeight                        0.00000
   DisplaceListedAtomWeight                    0.00000
   DisplaceListedTypeWeight                    0.00000
   DisplaceUnderCoordinatedWeight              0.00000
   DisplaceLeastCoordinatedWeight              0.00000
   DisplaceNotFCCHCPWeight                     0.00000
   DisplaceNotTCPBCCWeight                     0.00000
   DisplaceNotTCPWeight                        0.00000
   DisplaceWaterWeight                         0.00000
   DisplaceAlongNormalModesWeight              0.00000
   DispListedAtoms                                    
   DispListedTypes                                    
   DisplaceAllAtoms                                  F
   DisplaceAllListed                                 F
   DisplaceMaxCoordination                          11

   Prefactor
   ---------
   Rate                                           htst

      Optimizer
      ---------
      Method                                        cg
      MaxIterations                                400
      ConvergedForce                           0.00500
      MaxMove                                  0.20000
      TimeStep                                 1.00000
      MaxTimeStep                              2.50000
         
         CG (Conjugate Gradient)
         -----------------------
         NoOvershooting                              F
         KnockOutMaxMove                             F
         LineConverged                         0.10000
         LineSearch                                  F
         MaxIterBeforeReset                          0
         LineSearchMaxIter                          10
   
   StructureComparison
   -------------------
   DistanceDifference                          0.10000
   NeighborCutoff                              3.50000
   CheckRotation                                     F
   IndistinguishableAtoms                            T
   CheckSymmetry                                     F
   EnergyDifference                            0.10000
   RemoveTranslation                                 F
   
   StatesAlignment
   ---------------
   ReferenceRegion                             surface
   RemoveUnaligned                                   F
   DistanceDifference                          0.10000

   BindingSites
   ------------
   Calculate                                         T
   AllowDisconnected                                 F
   DistanceDifference                          0.10000
   NeighborCutoff                              3.50000

--------
Geometry
--------
Formula: OPt36
Atoms
  Index Symbol   x (angstrom)   y (angstrom)   z (angstrom)
      1      O     5.54003937     1.60484089     8.92740946       region=adsorbate
      2     Pt     8.31521714     4.80239136     7.78926430       region=surface
      3     Pt     5.54298786     0.00160612     7.79128800       region=surface
      4     Pt     6.92910250     2.40199874     7.79027615       region=surface
      5     Pt    11.08707571     4.80244586     7.78854885       region=surface
      6     Pt     8.31484643     0.00166062     7.79057254       region=surface
      7     Pt     9.70096096     2.40178486     7.79068672       region=surface
      8     Pt     5.54335868     4.80260524     7.78885374       region=surface
      9     Pt     2.77112940     0.00182001     7.79087743       region=surface
     10     Pt     4.15724404     2.40221263     7.78986559       region=surface
     11     Pt     9.70154331     5.60130339     5.52585419       region=surface
     12     Pt     6.92931403     0.80051815     5.52787789       region=surface
     13     Pt     8.31542867     3.20091077     5.52686604       region=surface
     14     Pt     4.15782639     5.60173116     5.52503306       region=surface
     15     Pt     1.38559711     0.80094593     5.52705675       region=surface
     16     Pt     2.77171175     3.20133854     5.52604491       region=surface
     17     Pt     6.92968485     5.60151727     5.52544363       region=surface
     18     Pt     4.15745557     0.80073204     5.52746732       region=surface
     19     Pt     5.54357021     3.20112466     5.52645547       region=surface
     20     Pt     6.92989639     4.00003668     3.26303536       region=surface
     21     Pt     8.31601103     6.40042930     3.26202352       region=surface
     22     Pt     5.54378174     1.59964406     3.26404721       region=surface
     23     Pt     9.70175484     3.99982280     3.26344593       region=surface
     24     Pt    11.08786948     6.40021541     3.26243408       region=surface
     25     Pt     8.31564020     1.59943018     3.26445778       region=surface
     26     Pt     4.15803792     4.00025057     3.26262480       region=surface
     27     Pt     5.54415256     6.40064318     3.26161295       region=surface
     28     Pt     2.77192328     1.59985795     3.26363664       region=surface
     29     Pt     1.38639089     2.39871548     1.00094199       region=surface
     30     Pt     5.54436409     4.79916260     0.99921469       region=surface
     31     Pt     6.93024583     7.19969029     1.00043291       region=surface
     32     Pt     4.15824945     2.39876998     1.00022653       region=surface
     33     Pt     8.31622256     4.79894871     0.99962525       region=surface
     34     Pt     9.70210429     7.19947641     1.00084348       region=surface
     35     Pt     6.93010792     2.39855609     1.00063710       region=surface
     36     Pt     2.77250564     4.79937648     0.99880412       region=surface
     37     Pt     4.15838737     7.19990418     1.00002234       region=surface

Lattice vectors (angstrom)
      1     8.31557575     0.00000000     0.00000000
      2     4.15778787     7.20149984     0.00000000

Unit cell area (angstrom^2)        59.88462

Total System Charge             0.00000


---------------------------
ReaxFF Engine configuration
---------------------------
Bond order cutoff                      0.001000
Force field                            CHONSFPtClNi.ff
Furman torsions                        F
Nonreactive                            F
Taper bond orders                      F
Torsion version                        original


-------------------------
Binding Sites Computation
-------------------------

-----------------------
Binding Sites Per State
-----------------------

Number of binding sites:                            54
Number of connections:                              27

Binding sites:

   id   Label   State    Atom   Energy(a.u.)              x              y              z
    1      N7      10       1      -7.271337        8.31501        3.20297        8.91904
    2      N6       6       1      -7.278599        9.70139        4.00310        8.92605
    3      N6       4       1      -7.278614        2.77149        1.60206        8.92702
    4      N7      11       1      -7.271322        1.38523        0.80195        8.91972
    5      N6       5       1      -7.278607        8.31489        1.60174        8.92707
    6      N7      11       1      -7.271322        1.38523        0.80195        8.91972
    7      N6       2       1      -7.278618       11.08744        6.40142        8.92669
    8      N7      13       1      -7.271311        6.92933        0.80201        8.91977
    9      N6       8       1      -7.278585        6.92898        4.00292        8.92603
   10      N7      10       1      -7.271337        8.31501        3.20297        8.91904
   11      N6       9       1      -7.278577        4.15720        4.00286        8.92564
   12      N7      12       1      -7.271315        2.77189        3.20341        8.91864
   13      N6       3       1      -7.278615        5.54295        1.60255        8.92703
   14      N7      13       1      -7.271311        6.92933        0.80201        8.91977
   15      N7      13       1      -7.271311        6.92933        0.80201        8.91977
   16      N6       5       1      -7.278607        8.31489        1.60174        8.92707
   17      N7      15       1      -7.271295        4.15692        0.80241        8.91974
   18      N6       1       1      -7.278632        8.31494        6.40180        8.92703
   19      N6       6       1      -7.278599        9.70139        4.00310        8.92605
   20      N7      12       1      -7.271315        2.77189        3.20341        8.91864
   21      N7      14       1      -7.271304        5.54297        3.20313        8.91864
   22      N6       9       1      -7.278577        4.15720        4.00286        8.92564
   23      N6       3       1      -7.278615        5.54295        1.60255        8.92703
   24      N7      15       1      -7.271295        4.15692        0.80241        8.91974
   25      N7      15       1      -7.271295        4.15692        0.80241        8.91974
   26      N6       4       1      -7.278614        2.77149        1.60206        8.92702
   27      N7      14       1      -7.271304        5.54297        3.20313        8.91864
   28      N6       8       1      -7.278585        6.92898        4.00292        8.92603
   29      N6       5       1      -7.278607        8.31489        1.60174        8.92707
   30      N7      10       1      -7.271337        8.31501        3.20297        8.91904
   31      N6       7       1      -7.278596        5.54313        6.40167        8.92666
   32      N7      11       1      -7.271322        1.38523        0.80195        8.91972
   33      N7      16       1      -7.271282        6.92875        5.60170        8.91862
   34      N6       7       1      -7.278596        5.54313        6.40167        8.92666
   35      N7      18       1      -7.271275        4.15701        5.60172        8.91825
   36      N6       2       1      -7.278618       11.08744        6.40142        8.92669
   37      N6       6       1      -7.278599        9.70139        4.00310        8.92605
   38      N7      17       1      -7.271276        9.70124        5.60127        8.91867
   39      N6       1       1      -7.278632        8.31494        6.40180        8.92703
   40      N7      17       1      -7.271276        9.70124        5.60127        8.91867
   41      N6       8       1      -7.278585        6.92898        4.00292        8.92603
   42      N7      16       1      -7.271282        6.92875        5.60170        8.91862
   43      N6       3       1      -7.278615        5.54295        1.60255        8.92703
   44      N7      14       1      -7.271304        5.54297        3.20313        8.91864
   45      N6       4       1      -7.278614        2.77149        1.60206        8.92702
   46      N7      12       1      -7.271315        2.77189        3.20341        8.91864
   47      N7      17       1      -7.271276        9.70124        5.60127        8.91867
   48      N6       2       1      -7.278618       11.08744        6.40142        8.92669
   49      N6       1       1      -7.278632        8.31494        6.40180        8.92703
   50      N7      16       1      -7.271282        6.92875        5.60170        8.91862
   51      N6       9       1      -7.278577        4.15720        4.00286        8.92564
   52      N7      18       1      -7.271275        4.15701        5.60172        8.91825
   53      N7      18       1      -7.271275        4.15701        5.60172        8.91825
   54      N6       7       1      -7.278596        5.54313        6.40167        8.92666

Connections:

   id  Source  Target       ld
    1       1       2     0  0
    2       3       4     0  0
    3       5       6     1  0
    4       7       8     0  1
    5       9      10     0  0
    6      11      12     0  0
    7      13      14     0  0
    8      15      16     0  0
    9      17      18     0 -1
   10      19      20     1  0
   11      21      22     0  0
   12      23      24     0  0
   13      25      26     0  0
   14      27      28     0  0
   15      29      30     0  0
   16      31      32     0  1
   17      33      34     0  0
   18      35      36    -1  0
   19      37      38     0  0
   20      39      40     0  0
   21      41      42     0  0
   22      43      44     0  0
   23      45      46     0  0
   24      47      48     0  0
   25      49      50     0  0
   26      51      52     0  0
   27      53      54     0  0

-------------
Binding Sites
-------------

Number of binding sites:                            18
Number of connections:                              27

Binding sites:

   id   Label   Aver.E(a.u.)  Stdev.E(a.u.)              x              y              z     Parents
    1      N6      -7.278614       0.000000        2.77149        1.60206        8.92702     4(1)
    2      N6      -7.278577       0.000000        4.15720        4.00286        8.92564     9(1)
    3      N6      -7.278615       0.000000        5.54295        1.60255        8.92703     3(1)
    4      N6      -7.278596       0.000000        5.54313        6.40167        8.92666     7(1)
    5      N6      -7.278585       0.000000        6.92898        4.00292        8.92603     8(1)
    6      N6      -7.278607       0.000000        8.31489        1.60174        8.92707     5(1)
    7      N6      -7.278632       0.000000        8.31494        6.40180        8.92703     1(1)
    8      N6      -7.278599       0.000000        9.70139        4.00310        8.92605     6(1)
    9      N6      -7.278618       0.000000       11.08744        6.40142        8.92669     2(1)
   10      N7      -7.271322       0.000000        1.38523        0.80195        8.91972     11(1)
   11      N7      -7.271315       0.000000        2.77189        3.20341        8.91864     12(1)
   12      N7      -7.271295       0.000000        4.15692        0.80241        8.91974     15(1)
   13      N7      -7.271275       0.000000        4.15701        5.60172        8.91825     18(1)
   14      N7      -7.271304       0.000000        5.54297        3.20313        8.91864     14(1)
   15      N7      -7.271311       0.000000        6.92933        0.80201        8.91977     13(1)
   16      N7      -7.271282       0.000000        6.92875        5.60170        8.91862     16(1)
   17      N7      -7.271337       0.000000        8.31501        3.20297        8.91904     10(1)
   18      N7      -7.271276       0.000000        9.70124        5.60127        8.91867     17(1)

Binding sites (fractional):

   id   Label   Aver.E(a.u.)  Stdev.E(a.u.)              x              y              z     Parents
    1      N6      -7.278614       0.000000        0.22206        0.22246       16.86962     4(1)
    2      N6      -7.278577       0.000000        0.22201        0.55584       16.86702     9(1)
    3      N6      -7.278615       0.000000        0.55531        0.22253       16.86965     3(1)
    4      N6      -7.278596       0.000000        0.22213        0.88894       16.86895     7(1)
    5      N6      -7.278585       0.000000        0.55533        0.55585       16.86775     8(1)
    6      N6      -7.278607       0.000000        0.88871        0.22242       16.86971     5(1)
    7      N6      -7.278632       0.000000        0.55545        0.88895       16.86964     1(1)
    8      N6      -7.278599       0.000000        0.88872        0.55587       16.86779     6(1)
    9      N6      -7.278618       0.000000        0.88888        0.88890       16.86900     2(1)
   10      N7      -7.271322       0.000000        0.11090        0.11136       16.85583     11(1)
   11      N7      -7.271315       0.000000        0.11092        0.44483       16.85378     12(1)
   12      N7      -7.271295       0.000000        0.44418        0.11142       16.85586     15(1)
   13      N7      -7.271275       0.000000        0.11098        0.77785       16.85305     18(1)
   14      N7      -7.271304       0.000000        0.44418        0.44479       16.85378     14(1)
   15      N7      -7.271311       0.000000        0.77761        0.11137       16.85592     13(1)
   16      N7      -7.271282       0.000000        0.44430        0.77785       16.85375     16(1)
   17      N7      -7.271337       0.000000        0.77755        0.44476       16.85453     10(1)
   18      N7      -7.271276       0.000000        0.77774        0.77779       16.85385     17(1)

Connections:

   id  Source  Target       ld
    1      17       8     0  0
    2       1      10     0  0
    3       6      10     1  0
    4       9      15     0  1
    5       5      17     0  0
    6       2      11     0  0
    7       3      15     0  0
    8      15       6     0  0
    9      12       7     0 -1
   10       8      11     1  0
   11      14       2     0  0
   12       3      12     0  0
   13      12       1     0  0
   14      14       5     0  0
   15       6      17     0  0
   16       4      10     0  1
   17      16       4     0  0
   18      13       9    -1  0
   19       8      18     0  0
   20       7      18     0  0
   21       5      16     0  0
   22       3      14     0  0
   23       1      11     0  0
   24      18       9     0  0
   25       7      16     0  0
   26       2      13     0  0
   27      13       4     0  0

> Sorting Energy Landscape by Energy ... DONE

 
Saving database on KF file ... OK
 
----------------------
Final Energy Landscape
----------------------

        Id        Energy(a.u.)         RE(eV)   RE(kcal/mol)    Counts    Crit. point
     --------------------------------------------------------------------------------
         1           -7.278632        0.00000         0.0000         1            Min
         2           -7.278618        0.00038         0.0088         2            Min
         3           -7.278615        0.00046         0.0106         1            Min
         4           -7.278614        0.00050         0.0114         1            Min
         5           -7.278607        0.00068         0.0156         1            Min
         6           -7.278599        0.00088         0.0203         1            Min
         7           -7.278596        0.00098         0.0225         2            Min
         8           -7.278585        0.00127         0.0294         1            Min
         9           -7.278577        0.00148         0.0341         1            Min
        10           -7.271337        0.19849         4.5773         2            Min
        11           -7.271322        0.19890         4.5868         3            Min
        12           -7.271315        0.19910         4.5914         3            Min
        13           -7.271311        0.19920         4.5936         2            Min
        14           -7.271304        0.19939         4.5979         1            Min
        15           -7.271295        0.19963         4.6036         1            Min
        16           -7.271282        0.20000         4.6120         2            Min
        17           -7.271276        0.20015         4.6155         2            Min
        18           -7.271275        0.20018         4.6162         1            Min
        19           -7.252908        0.69999        16.1421         6             TS 10<-->6      1.72E+13:1.92E+13*  
        20           -7.252901        0.70017        16.1464        15             TS 4<-->11      1.92E+13:1.72E+13   
        21           -7.252890        0.70048        16.1533         8             TS 5<-->11      1.92E+13:1.73E+13   
        22           -7.252887        0.70054        16.1549         8             TS 2<-->13      1.92E+13:1.73E+13   
        23           -7.252887        0.70056        16.1553        13             TS 8<-->10      1.92E+13:1.72E+13   
        24           -7.252884        0.70064        16.1572        16             TS 9<-->12      1.92E+13:1.72E+13   
        25           -7.252882        0.70068        16.1581         9             TS 3<-->13      1.92E+13:1.72E+13   
        26           -7.252879        0.70076        16.1599         8             TS 13<-->5      1.72E+13:1.92E+13   
        27           -7.252879        0.70078        16.1603        13             TS 15<-->1      1.73E+13:1.92E+13   
        28           -7.252876        0.70085        16.1619         7             TS 6<-->12      1.92E+13:1.72E+13   
        29           -7.252875        0.70087        16.1623         7             TS 14<-->9      1.72E+13:1.92E+13   
        30           -7.252871        0.70100        16.1654         8             TS 3<-->15      1.92E+13:1.72E+13   
        31           -7.252869        0.70104        16.1664        11             TS 15<-->4      1.72E+13:1.92E+13   
        32           -7.252868        0.70106        16.1668         9             TS 14<-->8      1.72E+13:1.92E+13   
        33           -7.252863        0.70121        16.1703         8             TS 5<-->10      1.92E+13:1.72E+13   
        34           -7.252862        0.70124        16.1710         5             TS 7<-->11      1.92E+13:1.73E+13   
        35           -7.252857        0.70137        16.1740         6             TS 16<-->7      1.72E+13:1.92E+13   
        36           -7.252855        0.70142        16.1751         9             TS 18<-->2      1.72E+13:1.92E+13   
        37           -7.252853        0.70146        16.1761         6             TS 6<-->17      1.92E+13:1.72E+13   
        38           -7.252852        0.70151        16.1771         5             TS 1<-->17      1.92E+13:1.72E+13   
        39           -7.252851        0.70154        16.1779         6             TS 8<-->16      1.92E+13:1.72E+13   
        40           -7.252850        0.70157        16.1786        12             TS 3<-->14      1.92E+13:1.72E+13   
        41           -7.252835        0.70196        16.1875         8             TS 4<-->12      1.92E+13:1.72E+13   
        42           -7.252833        0.70203        16.1891         5             TS 17<-->2      1.72E+13:1.92E+13   
        43           -7.252833        0.70203        16.1893         9             TS 1<-->16      1.92E+13:1.72E+13   
        44           -7.252832        0.70205        16.1897         9             TS 9<-->18      1.92E+13:1.72E+13   
        45           -7.252822        0.70233        16.1960        11             TS 18<-->7      1.72E+13:1.92E+13   

*) Pre-exponential factors forward and backward in s^-1 or Hz

Number of configurations                            45
Number of local minima                              18
Number of transition states                         27
Energy range (a.u.)                           0.025810
Energy range (eV)                              0.70233
Energy range (kcal/mol)                        16.1960

Configurations
--------------
37
Id 1 Energy(hartree)     -7.27863174 Min
 O        8.31494348657838       6.40180456365929       8.92702683249802
 Pt       8.31521701338290       4.80239128551609       7.78926429999999
 Pt       5.54298790676056       0.00160634304289       7.79128800000001
 Pt       6.92910246002173       2.40199881427949       7.79027615000001
 Pt      11.08707541664954       4.80244578551440       7.78854885000000
 Pt       8.31484631002720       0.00166084294120       7.79057254000001
 Pt       9.70096075338856       2.40178493428611       7.79068672000001
 Pt       5.54335872001608       4.80260516550947       7.78885373999999
 Pt       2.77112961339374       0.00182023293626       7.79087743000001
 Pt       4.15724416665491       2.40221270427286       7.78986559000000
 Pt       9.70154309884962       5.60130326606605       5.52585419000000
 Pt       6.92931399222728       0.80051832349285       5.52787788999997
 Pt       8.31542854558845       3.20091079472945       5.52686604000001
 Pt       4.15782651221598       5.60173103605280       5.52503306000000
 Pt       1.38559740559363       0.80094610347960       5.52705674999998
 Pt       2.77171195885481       3.20133856471620       5.52604491000001
 Pt       6.92968480558280       5.60151714605943       5.52544363000000
 Pt       4.15745569896046       0.80073221348622       5.52746732000000
 Pt       5.54357025222163       3.20112468472282       5.52645547000001
 Pt       6.92989634778835       4.00003665527278       3.26303535999997
 Pt       8.31601090104952       6.40042912650939       3.26202352000000
 Pt       5.54378178442718       1.59964418393618       3.26404721000000
 Pt       9.70175463105517       3.99982277527941       3.26344592999998
 Pt      11.08786918441634       6.40021523651601       3.26243407999997
 Pt       8.31564007779401       1.59943030404281       3.26445777999999
 Pt       4.15803804442152       4.00025054526616       3.26262480000001
 Pt       5.54415259778270       6.40064300650276       3.26161295000000
 Pt       2.77192349116035       1.59985807392956       3.26363664000000
 Pt       1.38639118336044       2.39871555448120       1.00094199000000
 Pt       5.54436412998825       4.79916252571612       0.99921468999999
 Pt       6.93024578325632       7.19969006704853       1.00043291000000
 Pt       4.15824957662707       2.39877005447952       1.00022653000000
 Pt       8.31622243325507       4.79894863572274       0.99962525000001
 Pt       9.70210407662315       7.19947618705516       1.00084348000000
 Pt       6.93010787999389       2.39855616448614       1.00063710000000
 Pt       2.77250584662142       4.79937640570949       0.99880411999999
 Pt       4.15838748998950       7.19990395694191       1.00002234000000
VEC1       8.31557575000000       0.00000000000000       0.00000000000000
VEC2       4.15778787000000       7.20149984000000       0.00000000000000
37
Id 2 Energy(hartree)     -7.27861769 Min
 O       11.08744406929457       6.40142391131802       8.92668797574166
 Pt       8.31521688679402       4.80239121101054       7.78926429999999
 Pt       5.54298795357167       0.00160656613733       7.79128800000001
 Pt       6.92910242003285       2.40199888857393       7.79027615000001
 Pt      11.08707512326066       4.80244571100885       7.78854885000000
 Pt       8.31484619003831       0.00166106583564       7.79057254000001
 Pt       9.70096054679967       2.40178500858056       7.79068672000001
 Pt       5.54335876002719       4.80260509100391       7.78885373999999
 Pt       2.77112982680484       0.00182045583070       7.79087743000001
 Pt       4.15724429326602       2.40221277856730       7.78986559000000
 Pt       9.70154288766074       5.60130314216050       5.52585419000000
 Pt       6.92931395443840       0.80051849698729       5.52787788999997
 Pt       8.31542842119957       3.20091081942389       5.52686604000001
 Pt       4.15782663442709       5.60173091214725       5.52503306000000
 Pt       1.38559770120474       0.80094627697404       5.52705674999998
 Pt       2.77171216766591       3.20133858941064       5.52604491000001
 Pt       6.92968476119391       5.60151702215387       5.52544363000000
 Pt       4.15745582797157       0.80073238698066       5.52746732000000
 Pt       5.54357029443274       3.20112470941727       5.52645547000001
 Pt       6.92989630559946       4.00003663056723       3.26303535999997
 Pt       8.31601077206063       6.40042895300383       3.26202352000000
 Pt       5.54378182883829       1.59964430783062       3.26404721000000
 Pt       9.70175442206629       3.99982275057386       3.26344592999998
 Pt      11.08786888882746       6.40021506301046       3.26243407999997
 Pt       8.31563995560512       1.59943042813725       3.26445777999999
 Pt       4.15803816883263       4.00025052056060       3.26262480000001
 Pt       5.54415263559380       6.40064283299721       3.26161295000000
 Pt       2.77192370237146       1.59985819782400       3.26363664000000
 Pt       1.38639147677154       2.39871562897565       1.00094199000000
 Pt       5.54436416999935       4.79916245141056       0.99921468999999
 Pt       6.93024573646744       7.19968984414298       1.00043291000000
 Pt       4.15824970323818       2.39877012897396       1.00022653000000
 Pt       8.31622230646618       4.79894856141719       0.99962525000001
 Pt       9.70210386323427       7.19947596414961       1.00084348000000
 Pt       6.93010784000501       2.39855623898059       1.00063710000000
 Pt       2.77250605323253       4.79937633140394       0.99880411999999
 Pt       4.15838761000061       7.19990373383636       1.00002234000000
VEC1       8.31557575000000       0.00000000000000       0.00000000000000
VEC2       4.15778787000000       7.20149984000000       0.00000000000000
37
Id 3 Energy(hartree)     -7.27861478 Min
 O        5.54295134170342       1.60255411640471       8.92703316681343
 Pt       8.31521714000001       4.80239136000000       7.78926430000000
 Pt       5.54298786000000       0.00160612000000       7.79128800000000
 Pt       6.92910250000000       2.40199874000000       7.79027615000000
 Pt      11.08707571000001       4.80244586000000       7.78854885000000
 Pt       8.31484643000001       0.00166062000000       7.79057254000000
 Pt       9.70096096000001       2.40178486000000       7.79068672000000
 Pt       5.54335868000000       4.80260524000000       7.78885373999999
 Pt       2.77112940000000       0.00182001000000       7.79087743000000
 Pt       4.15724404000000       2.40221263000000       7.78986559000000
 Pt       9.70154331000000       5.60130339000000       5.52585419000000
 Pt       6.92931403000000       0.80051815000000       5.52787789000000
 Pt       8.31542867000000       3.20091077000000       5.52686603999999
 Pt       4.15782639000000       5.60173116000000       5.52503306000000
 Pt       1.38559711000000       0.80094593000000       5.52705675000000
 Pt       2.77171175000000       3.20133854000000       5.52604490999999
 Pt       6.92968485000000       5.60151727000000       5.52544363000000
 Pt       4.15745557000000       0.80073204000000       5.52746732000000
 Pt       5.54357021000000       3.20112466000000       5.52645546999999
 Pt       6.92989639000000       4.00003668000000       3.26303536000000
 Pt       8.31601103000000       6.40042930000000       3.26202352000000
 Pt       5.54378174000000       1.59964406000000       3.26404721000000
 Pt       9.70175484000000       3.99982280000000       3.26344592999999
 Pt      11.08786948000001       6.40021541000000       3.26243408000000
 Pt       8.31564020000000       1.59943018000000       3.26445778000000
 Pt       4.15803792000000       4.00025057000000       3.26262480000000
 Pt       5.54415256000000       6.40064318000000       3.26161295000000
 Pt       2.77192328000000       1.59985795000000       3.26363664000000
 Pt       1.38639089000000       2.39871548000000       1.00094199000000
 Pt       5.54436409000000       4.79916260000000       0.99921469000000
 Pt       6.93024583000000       7.19969029000000       1.00043291000000
 Pt       4.15824945000000       2.39876998000000       1.00022653000000
 Pt       8.31622256000001       4.79894871000000       0.99962525000000
 Pt       9.70210429000000       7.19947641000000       1.00084348000000
 Pt       6.93010792000000       2.39855609000000       1.00063710000000
 Pt       2.77250564000000       4.79937648000000       0.99880412000000
 Pt       4.15838737000000       7.19990418000000       1.00002234000000
VEC1       8.31557575000000       0.00000000000000       0.00000000000000
VEC2       4.15778787000000       7.20149984000000       0.00000000000000
37
Id 4 Energy(hartree)     -7.27861352 Min
 O        2.77149140388282       1.60205934731914       8.92701897116861
 Pt       8.31521701338290       4.80239128551609       7.78926429999999
 Pt       5.54298790676056       0.00160634304289       7.79128800000001
 Pt       6.92910246002173       2.40199881427949       7.79027615000001
 Pt      11.08707541664954       4.80244578551440       7.78854885000000
 Pt       8.31484631002720       0.00166084294120       7.79057254000001
 Pt       9.70096075338856       2.40178493428611       7.79068672000001
 Pt       5.54335872001608       4.80260516550947       7.78885373999999
 Pt       2.77112961339374       0.00182023293626       7.79087743000001
 Pt       4.15724416665491       2.40221270427286       7.78986559000000
 Pt       9.70154309884962       5.60130326606605       5.52585419000000
 Pt       6.92931399222728       0.80051832349285       5.52787788999997
 Pt       8.31542854558845       3.20091079472945       5.52686604000001
 Pt       4.15782651221598       5.60173103605280       5.52503306000000
 Pt       1.38559740559363       0.80094610347960       5.52705674999998
 Pt       2.77171195885481       3.20133856471620       5.52604491000001
 Pt       6.92968480558280       5.60151714605943       5.52544363000000
 Pt       4.15745569896046       0.80073221348622       5.52746732000000
 Pt       5.54357025222163       3.20112468472282       5.52645547000001
 Pt       6.92989634778835       4.00003665527278       3.26303535999997
 Pt       8.31601090104952       6.40042912650939       3.26202352000000
 Pt       5.54378178442718       1.59964418393618       3.26404721000000
 Pt       9.70175463105517       3.99982277527941       3.26344592999998
 Pt      11.08786918441634       6.40021523651601       3.26243407999997
 Pt       8.31564007779401       1.59943030404281       3.26445777999999
 Pt       4.15803804442152       4.00025054526616       3.26262480000001
 Pt       5.54415259778270       6.40064300650276       3.26161295000000
 Pt       2.77192349116035       1.59985807392956       3.26363664000000
 Pt       1.38639118336044       2.39871555448120       1.00094199000000
 Pt       5.54436412998825       4.79916252571612       0.99921468999999
 Pt       6.93024578325632       7.19969006704853       1.00043291000000
 Pt       4.15824957662707       2.39877005447952       1.00022653000000
 Pt       8.31622243325507       4.79894863572274       0.99962525000001
 Pt       9.70210407662315       7.19947618705516       1.00084348000000
 Pt       6.93010787999389       2.39855616448614       1.00063710000000
 Pt       2.77250584662142       4.79937640570949       0.99880411999999
 Pt       4.15838748998950       7.19990395694191       1.00002234000000
VEC1       8.31557575000000       0.00000000000000       0.00000000000000
VEC2       4.15778787000000       7.20149984000000       0.00000000000000
37
Id 5 Energy(hartree)     -7.27860693 Min
 O        8.31489176222174       1.60174351873896       8.92706725452959
 Pt       8.31521701338290       4.80239128551609       7.78926429999999
 Pt       5.54298790676056       0.00160634304289       7.79128800000001
 Pt       6.92910246002173       2.40199881427949       7.79027615000001
 Pt      11.08707541664954       4.80244578551440       7.78854885000000
 Pt       8.31484631002720       0.00166084294120       7.79057254000001
 Pt       9.70096075338856       2.40178493428611       7.79068672000001
 Pt       5.54335872001608       4.80260516550947       7.78885373999999
 Pt       2.77112961339374       0.00182023293626       7.79087743000001
 Pt       4.15724416665491       2.40221270427286       7.78986559000000
 Pt       9.70154309884962       5.60130326606605       5.52585419000000
 Pt       6.92931399222728       0.80051832349285       5.52787788999997
 Pt       8.31542854558845       3.20091079472945       5.52686604000001
 Pt       4.15782651221598       5.60173103605280       5.52503306000000
 Pt       1.38559740559363       0.80094610347960       5.52705674999998
 Pt       2.77171195885481       3.20133856471620       5.52604491000001
 Pt       6.92968480558280       5.60151714605943       5.52544363000000
 Pt       4.15745569896046       0.80073221348622       5.52746732000000
 Pt       5.54357025222163       3.20112468472282       5.52645547000001
 Pt       6.92989634778835       4.00003665527278       3.26303535999997
 Pt       8.31601090104952       6.40042912650939       3.26202352000000
 Pt       5.54378178442718       1.59964418393618       3.26404721000000
 Pt       9.70175463105517       3.99982277527941       3.26344592999998
 Pt      11.08786918441634       6.40021523651601       3.26243407999997
 Pt       8.31564007779401       1.59943030404281       3.26445777999999
 Pt       4.15803804442152       4.00025054526616       3.26262480000001
 Pt       5.54415259778270       6.40064300650276       3.26161295000000
 Pt       2.77192349116035       1.59985807392956       3.26363664000000
 Pt       1.38639118336044       2.39871555448120       1.00094199000000
 Pt       5.54436412998825       4.79916252571612       0.99921468999999
 Pt       6.93024578325632       7.19969006704853       1.00043291000000
 Pt       4.15824957662707       2.39877005447952       1.00022653000000
 Pt       8.31622243325507       4.79894863572274       0.99962525000001
 Pt       9.70210407662315       7.19947618705516       1.00084348000000
 Pt       6.93010787999389       2.39855616448614       1.00063710000000
 Pt       2.77250584662142       4.79937640570949       0.99880411999999
 Pt       4.15838748998950       7.19990395694191       1.00002234000000
VEC1       8.31557575000000       0.00000000000000       0.00000000000000
VEC2       4.15778787000000       7.20149984000000       0.00000000000000
37
Id 6 Energy(hartree)     -7.27859944 Min
 O        9.70139132448905       4.00310067416119       8.92605117902818
 Pt       8.31521688679402       4.80239121101054       7.78926429999999
 Pt       5.54298795357167       0.00160656613733       7.79128800000001
 Pt       6.92910242003285       2.40199888857393       7.79027615000001
 Pt      11.08707512326066       4.80244571100885       7.78854885000000
 Pt       8.31484619003831       0.00166106583564       7.79057254000001
 Pt       9.70096054679967       2.40178500858056       7.79068672000001
 Pt       5.54335876002719       4.80260509100391       7.78885373999999
 Pt       2.77112982680484       0.00182045583070       7.79087743000001
 Pt       4.15724429326602       2.40221277856730       7.78986559000000
 Pt       9.70154288766074       5.60130314216050       5.52585419000000
 Pt       6.92931395443840       0.80051849698729       5.52787788999997
 Pt       8.31542842119957       3.20091081942389       5.52686604000001
 Pt       4.15782663442709       5.60173091214725       5.52503306000000
 Pt       1.38559770120474       0.80094627697404       5.52705674999998
 Pt       2.77171216766591       3.20133858941064       5.52604491000001
 Pt       6.92968476119391       5.60151702215387       5.52544363000000
 Pt       4.15745582797157       0.80073238698066       5.52746732000000
 Pt       5.54357029443274       3.20112470941727       5.52645547000001
 Pt       6.92989630559946       4.00003663056723       3.26303535999997
 Pt       8.31601077206063       6.40042895300383       3.26202352000000
 Pt       5.54378182883829       1.59964430783062       3.26404721000000
 Pt       9.70175442206629       3.99982275057386       3.26344592999998
 Pt      11.08786888882746       6.40021506301046       3.26243407999997
 Pt       8.31563995560512       1.59943042813725       3.26445777999999
 Pt       4.15803816883263       4.00025052056060       3.26262480000001
 Pt       5.54415263559380       6.40064283299721       3.26161295000000
 Pt       2.77192370237146       1.59985819782400       3.26363664000000
 Pt       1.38639147677154       2.39871562897565       1.00094199000000
 Pt       5.54436416999935       4.79916245141056       0.99921468999999
 Pt       6.93024573646744       7.19968984414298       1.00043291000000
 Pt       4.15824970323818       2.39877012897396       1.00022653000000
 Pt       8.31622230646618       4.79894856141719       0.99962525000001
 Pt       9.70210386323427       7.19947596414961       1.00084348000000
 Pt       6.93010784000501       2.39855623898059       1.00063710000000
 Pt       2.77250605323253       4.79937633140394       0.99880411999999
 Pt       4.15838761000061       7.19990373383636       1.00002234000000
VEC1       8.31557575000000       0.00000000000000       0.00000000000000
VEC2       4.15778787000000       7.20149984000000       0.00000000000000
37
Id 7 Energy(hartree)     -7.27859582 Min
 O        5.54313067886572       6.40167227401718       8.92666304903176
 Pt       8.31521688679402       4.80239121101054       7.78926429999999
 Pt       5.54298795357167       0.00160656613733       7.79128800000001
 Pt       6.92910242003285       2.40199888857393       7.79027615000001
 Pt      11.08707512326066       4.80244571100885       7.78854885000000
 Pt       8.31484619003831       0.00166106583564       7.79057254000001
 Pt       9.70096054679967       2.40178500858056       7.79068672000001
 Pt       5.54335876002719       4.80260509100391       7.78885373999999
 Pt       2.77112982680484       0.00182045583070       7.79087743000001
 Pt       4.15724429326602       2.40221277856730       7.78986559000000
 Pt       9.70154288766074       5.60130314216050       5.52585419000000
 Pt       6.92931395443840       0.80051849698729       5.52787788999997
 Pt       8.31542842119957       3.20091081942389       5.52686604000001
 Pt       4.15782663442709       5.60173091214725       5.52503306000000
 Pt       1.38559770120474       0.80094627697404       5.52705674999998
 Pt       2.77171216766591       3.20133858941064       5.52604491000001
 Pt       6.92968476119391       5.60151702215387       5.52544363000000
 Pt       4.15745582797157       0.80073238698066       5.52746732000000
 Pt       5.54357029443274       3.20112470941727       5.52645547000001
 Pt       6.92989630559946       4.00003663056723       3.26303535999997
 Pt       8.31601077206063       6.40042895300383       3.26202352000000
 Pt       5.54378182883829       1.59964430783062       3.26404721000000
 Pt       9.70175442206629       3.99982275057386       3.26344592999998
 Pt      11.08786888882746       6.40021506301046       3.26243407999997
 Pt       8.31563995560512       1.59943042813725       3.26445777999999
 Pt       4.15803816883263       4.00025052056060       3.26262480000001
 Pt       5.54415263559380       6.40064283299721       3.26161295000000
 Pt       2.77192370237146       1.59985819782400       3.26363664000000
 Pt       1.38639147677154       2.39871562897565       1.00094199000000
 Pt       5.54436416999935       4.79916245141056       0.99921468999999
 Pt       6.93024573646744       7.19968984414298       1.00043291000000
 Pt       4.15824970323818       2.39877012897396       1.00022653000000
 Pt       8.31622230646618       4.79894856141719       0.99962525000001
 Pt       9.70210386323427       7.19947596414961       1.00084348000000
 Pt       6.93010784000501       2.39855623898059       1.00063710000000
 Pt       2.77250605323253       4.79937633140394       0.99880411999999
 Pt       4.15838761000061       7.19990373383636       1.00002234000000
VEC1       8.31557575000000       0.00000000000000       0.00000000000000
VEC2       4.15778787000000       7.20149984000000       0.00000000000000
37
Id 8 Energy(hartree)     -7.27858493 Min
 O        6.92897747336970       4.00292427221316       8.92602711477979
 Pt       8.31521701338290       4.80239128551609       7.78926429999999
 Pt       5.54298790676056       0.00160634304289       7.79128800000001
 Pt       6.92910246002173       2.40199881427949       7.79027615000001
 Pt      11.08707541664954       4.80244578551440       7.78854885000000
 Pt       8.31484631002720       0.00166084294120       7.79057254000001
 Pt       9.70096075338856       2.40178493428611       7.79068672000001
 Pt       5.54335872001608       4.80260516550947       7.78885373999999
 Pt       2.77112961339374       0.00182023293626       7.79087743000001
 Pt       4.15724416665491       2.40221270427286       7.78986559000000
 Pt       9.70154309884962       5.60130326606605       5.52585419000000
 Pt       6.92931399222728       0.80051832349285       5.52787788999997
 Pt       8.31542854558845       3.20091079472945       5.52686604000001
 Pt       4.15782651221598       5.60173103605280       5.52503306000000
 Pt       1.38559740559363       0.80094610347960       5.52705674999998
 Pt       2.77171195885481       3.20133856471620       5.52604491000001
 Pt       6.92968480558280       5.60151714605943       5.52544363000000
 Pt       4.15745569896046       0.80073221348622       5.52746732000000
 Pt       5.54357025222163       3.20112468472282       5.52645547000001
 Pt       6.92989634778835       4.00003665527278       3.26303535999997
 Pt       8.31601090104952       6.40042912650939       3.26202352000000
 Pt       5.54378178442718       1.59964418393618       3.26404721000000
 Pt       9.70175463105517       3.99982277527941       3.26344592999998
 Pt      11.08786918441634       6.40021523651601       3.26243407999997
 Pt       8.31564007779401       1.59943030404281       3.26445777999999
 Pt       4.15803804442152       4.00025054526616       3.26262480000001
 Pt       5.54415259778270       6.40064300650276       3.26161295000000
 Pt       2.77192349116035       1.59985807392956       3.26363664000000
 Pt       1.38639118336044       2.39871555448120       1.00094199000000
 Pt       5.54436412998825       4.79916252571612       0.99921468999999
 Pt       6.93024578325632       7.19969006704853       1.00043291000000
 Pt       4.15824957662707       2.39877005447952       1.00022653000000
 Pt       8.31622243325507       4.79894863572274       0.99962525000001
 Pt       9.70210407662315       7.19947618705516       1.00084348000000
 Pt       6.93010787999389       2.39855616448614       1.00063710000000
 Pt       2.77250584662142       4.79937640570949       0.99880411999999
 Pt       4.15838748998950       7.19990395694191       1.00002234000000
VEC1       8.31557575000000       0.00000000000000       0.00000000000000
VEC2       4.15778787000000       7.20149984000000       0.00000000000000
37
Id 9 Energy(hartree)     -7.27857742 Min
 O        4.15719644875405       4.00286448239659       8.92564069521367
 Pt       8.31521701338290       4.80239128551609       7.78926429999999
 Pt       5.54298790676056       0.00160634304289       7.79128800000001
 Pt       6.92910246002173       2.40199881427949       7.79027615000001
 Pt      11.08707541664954       4.80244578551440       7.78854885000000
 Pt       8.31484631002720       0.00166084294120       7.79057254000001
 Pt       9.70096075338856       2.40178493428611       7.79068672000001
 Pt       5.54335872001608       4.80260516550947       7.78885373999999
 Pt       2.77112961339374       0.00182023293626       7.79087743000001
 Pt       4.15724416665491       2.40221270427286       7.78986559000000
 Pt       9.70154309884962       5.60130326606605       5.52585419000000
 Pt       6.92931399222728       0.80051832349285       5.52787788999997
 Pt       8.31542854558845       3.20091079472945       5.52686604000001
 Pt       4.15782651221598       5.60173103605280       5.52503306000000
 Pt       1.38559740559363       0.80094610347960       5.52705674999998
 Pt       2.77171195885481       3.20133856471620       5.52604491000001
 Pt       6.92968480558280       5.60151714605943       5.52544363000000
 Pt       4.15745569896046       0.80073221348622       5.52746732000000
 Pt       5.54357025222163       3.20112468472282       5.52645547000001
 Pt       6.92989634778835       4.00003665527278       3.26303535999997
 Pt       8.31601090104952       6.40042912650939       3.26202352000000
 Pt       5.54378178442718       1.59964418393618       3.26404721000000
 Pt       9.70175463105517       3.99982277527941       3.26344592999998
 Pt      11.08786918441634       6.40021523651601       3.26243407999997
 Pt       8.31564007779401       1.59943030404281       3.26445777999999
 Pt       4.15803804442152       4.00025054526616       3.26262480000001
 Pt       5.54415259778270       6.40064300650276       3.26161295000000
 Pt       2.77192349116035       1.59985807392956       3.26363664000000
 Pt       1.38639118336044       2.39871555448120       1.00094199000000
 Pt       5.54436412998825       4.79916252571612       0.99921468999999
 Pt       6.93024578325632       7.19969006704853       1.00043291000000
 Pt       4.15824957662707       2.39877005447952       1.00022653000000
 Pt       8.31622243325507       4.79894863572274       0.99962525000001
 Pt       9.70210407662315       7.19947618705516       1.00084348000000
 Pt       6.93010787999389       2.39855616448614       1.00063710000000
 Pt       2.77250584662142       4.79937640570949       0.99880411999999
 Pt       4.15838748998950       7.19990395694191       1.00002234000000
VEC1       8.31557575000000       0.00000000000000       0.00000000000000
VEC2       4.15778787000000       7.20149984000000       0.00000000000000
37
Id 10 Energy(hartree)     -7.27133728 Min
 O        8.31501411311811       3.20296808464360       8.91903514185631
 Pt       8.31521695008846       4.80239124826331       7.78926429999999
 Pt       5.54298793016612       0.00160645459011       7.79128800000001
 Pt       6.92910244002729       2.40199885142671       7.79027615000001
 Pt      11.08707526995510       4.80244574826163       7.78854885000000
 Pt       8.31484625003275       0.00166095438842       7.79057254000001
 Pt       9.70096065009412       2.40178497143334       7.79068672000001
 Pt       5.54335874002163       4.80260512825669       7.78885373999999
 Pt       2.77112972009929       0.00182034438348       7.79087743000001
 Pt       4.15724422996046       2.40221274142009       7.78986559000000
 Pt       9.70154299325518       5.60130320411327       5.52585419000000
 Pt       6.92931397333284       0.80051841024007       5.52787788999997
 Pt       8.31542848339401       3.20091080707667       5.52686604000001
 Pt       4.15782657332153       5.60173097410002       5.52503306000000
 Pt       1.38559755339918       0.80094619022682       5.52705674999998
 Pt       2.77171206326036       3.20133857706342       5.52604491000001
 Pt       6.92968478338836       5.60151708410665       5.52544363000000
 Pt       4.15745576346601       0.80073230023344       5.52746732000000
 Pt       5.54357027332718       3.20112469707005       5.52645547000001
 Pt       6.92989632669389       4.00003664292001       3.26303535999997
 Pt       8.31601083655508       6.40042903975661       3.26202352000000
 Pt       5.54378180663273       1.59964424588340       3.26404721000000
 Pt       9.70175452656073       3.99982276292663       3.26344592999998
 Pt      11.08786903662190       6.40021514976323       3.26243407999997
 Pt       8.31564001669956       1.59943036609003       3.26445777999999
 Pt       4.15803810662708       4.00025053291338       3.26262480000001
 Pt       5.54415261668824       6.40064291974998       3.26161295000000
 Pt       2.77192359676590       1.59985813587678       3.26363664000000
 Pt       1.38639133006599       2.39871559172843       1.00094199000000
 Pt       5.54436414999380       4.79916248856334       0.99921468999999
 Pt       6.93024575986188       7.19968995559576       1.00043291000000
 Pt       4.15824963993263       2.39877009172674       1.00022653000000
 Pt       8.31622236986063       4.79894859856997       0.99962525000001
 Pt       9.70210396992871       7.19947607560239       1.00084348000000
 Pt       6.93010785999945       2.39855620173337       1.00063710000000
 Pt       2.77250594992697       4.79937636855672       0.99880411999999
 Pt       4.15838754999505       7.19990384538914       1.00002234000000
VEC1       8.31557575000000       0.00000000000000       0.00000000000000
VEC2       4.15778787000000       7.20149984000000       0.00000000000000
37
Id 11 Energy(hartree)     -7.27132216 Min
 O        1.38522906826160       0.80195377452821       8.91972102523271
 Pt       8.31521695008846       4.80239124826331       7.78926429999999
 Pt       5.54298793016612       0.00160645459011       7.79128800000001
 Pt       6.92910244002729       2.40199885142671       7.79027615000001
 Pt      11.08707526995510       4.80244574826163       7.78854885000000
 Pt       8.31484625003275       0.00166095438842       7.79057254000001
 Pt       9.70096065009412       2.40178497143334       7.79068672000001
 Pt       5.54335874002163       4.80260512825669       7.78885373999999
 Pt       2.77112972009929       0.00182034438348       7.79087743000001
 Pt       4.15724422996046       2.40221274142009       7.78986559000000
 Pt       9.70154299325518       5.60130320411327       5.52585419000000
 Pt       6.92931397333284       0.80051841024007       5.52787788999997
 Pt       8.31542848339401       3.20091080707667       5.52686604000001
 Pt       4.15782657332153       5.60173097410002       5.52503306000000
 Pt       1.38559755339918       0.80094619022682       5.52705674999998
 Pt       2.77171206326036       3.20133857706342       5.52604491000001
 Pt       6.92968478338836       5.60151708410665       5.52544363000000
 Pt       4.15745576346601       0.80073230023344       5.52746732000000
 Pt       5.54357027332718       3.20112469707005       5.52645547000001
 Pt       6.92989632669389       4.00003664292001       3.26303535999997
 Pt       8.31601083655508       6.40042903975661       3.26202352000000
 Pt       5.54378180663273       1.59964424588340       3.26404721000000
 Pt       9.70175452656073       3.99982276292663       3.26344592999998
 Pt      11.08786903662190       6.40021514976323       3.26243407999997
 Pt       8.31564001669956       1.59943036609003       3.26445777999999
 Pt       4.15803810662708       4.00025053291338       3.26262480000001
 Pt       5.54415261668824       6.40064291974998       3.26161295000000
 Pt       2.77192359676590       1.59985813587678       3.26363664000000
 Pt       1.38639133006599       2.39871559172843       1.00094199000000
 Pt       5.54436414999380       4.79916248856334       0.99921468999999
 Pt       6.93024575986188       7.19968995559576       1.00043291000000
 Pt       4.15824963993263       2.39877009172674       1.00022653000000
 Pt       8.31622236986063       4.79894859856997       0.99962525000001
 Pt       9.70210396992871       7.19947607560239       1.00084348000000
 Pt       6.93010785999945       2.39855620173337       1.00063710000000
 Pt       2.77250594992697       4.79937636855672       0.99880411999999
 Pt       4.15838754999505       7.19990384538914       1.00002234000000
VEC1       8.31557575000000       0.00000000000000       0.00000000000000
VEC2       4.15778787000000       7.20149984000000       0.00000000000000
37
Id 12 Energy(hartree)     -7.27131486 Min
 O        2.77188603274579       3.20340995168720       8.91863748842679
 Pt       8.31521695008846       4.80239124826331       7.78926429999999
 Pt       5.54298793016612       0.00160645459011       7.79128800000001
 Pt       6.92910244002729       2.40199885142671       7.79027615000001
 Pt      11.08707526995510       4.80244574826163       7.78854885000000
 Pt       8.31484625003275       0.00166095438842       7.79057254000001
 Pt       9.70096065009412       2.40178497143334       7.79068672000001
 Pt       5.54335874002163       4.80260512825669       7.78885373999999
 Pt       2.77112972009929       0.00182034438348       7.79087743000001
 Pt       4.15724422996046       2.40221274142009       7.78986559000000
 Pt       9.70154299325518       5.60130320411327       5.52585419000000
 Pt       6.92931397333284       0.80051841024007       5.52787788999997
 Pt       8.31542848339401       3.20091080707667       5.52686604000001
 Pt       4.15782657332153       5.60173097410002       5.52503306000000
 Pt       1.38559755339918       0.80094619022682       5.52705674999998
 Pt       2.77171206326036       3.20133857706342       5.52604491000001
 Pt       6.92968478338836       5.60151708410665       5.52544363000000
 Pt       4.15745576346601       0.80073230023344       5.52746732000000
 Pt       5.54357027332718       3.20112469707005       5.52645547000001
 Pt       6.92989632669389       4.00003664292001       3.26303535999997
 Pt       8.31601083655508       6.40042903975661       3.26202352000000
 Pt       5.54378180663273       1.59964424588340       3.26404721000000
 Pt       9.70175452656073       3.99982276292663       3.26344592999998
 Pt      11.08786903662190       6.40021514976323       3.26243407999997
 Pt       8.31564001669956       1.59943036609003       3.26445777999999
 Pt       4.15803810662708       4.00025053291338       3.26262480000001
 Pt       5.54415261668824       6.40064291974998       3.26161295000000
 Pt       2.77192359676590       1.59985813587678       3.26363664000000
 Pt       1.38639133006599       2.39871559172843       1.00094199000000
 Pt       5.54436414999380       4.79916248856334       0.99921468999999
 Pt       6.93024575986188       7.19968995559576       1.00043291000000
 Pt       4.15824963993263       2.39877009172674       1.00022653000000
 Pt       8.31622236986063       4.79894859856997       0.99962525000001
 Pt       9.70210396992871       7.19947607560239       1.00084348000000
 Pt       6.93010785999945       2.39855620173337       1.00063710000000
 Pt       2.77250594992697       4.79937636855672       0.99880411999999
 Pt       4.15838754999505       7.19990384538914       1.00002234000000
VEC1       8.31557575000000       0.00000000000000       0.00000000000000
VEC2       4.15778787000000       7.20149984000000       0.00000000000000
37
Id 13 Energy(hartree)     -7.27131131 Min
 O        6.92932821949704       0.80200673120176       8.91976850509369
 Pt       8.31521707667734       4.80239132276887       7.78926429999999
 Pt       5.54298788335501       0.00160623149567       7.79128800000001
 Pt       6.92910248001618       2.40199877713227       7.79027615000001
 Pt      11.08707556334398       4.80244582276718       7.78854885000000
 Pt       8.31484637002164       0.00166073149398       7.79057254000001
 Pt       9.70096085668300       2.40178489713889       7.79068672000001
 Pt       5.54335870001053       4.80260520276224       7.78885373999999
 Pt       2.77112950668818       0.00182012148905       7.79087743000001
 Pt       4.15724410334936       2.40221266712564       7.78986559000000
 Pt       9.70154320444406       5.60130332801883       5.52585419000000
 Pt       6.92931401112173       0.80051823674563       5.52787788999997
 Pt       8.31542860778290       3.20091078238223       5.52686604000001
 Pt       4.15782645111042       5.60173109800558       5.52503306000000
 Pt       1.38559725778808       0.80094601673238       5.52705674999998
 Pt       2.77171185444925       3.20133855236898       5.52604491000001
 Pt       6.92968482777724       5.60151720801220       5.52544363000000
 Pt       4.15745563445490       0.80073212673900       5.52746732000000
 Pt       5.54357023111607       3.20112467237560       5.52645547000001
 Pt       6.92989636888279       4.00003666762556       3.26303535999997
 Pt       8.31601096554396       6.40042921326216       3.26202352000000
 Pt       5.54378176222162       1.59964412198896       3.26404721000000
 Pt       9.70175473554961       3.99982278763219       3.26344592999998
 Pt      11.08786933221078       6.40021532326878       3.26243407999997
 Pt       8.31564013888844       1.59943024199559       3.26445777999999
 Pt       4.15803798221597       4.00025055761894       3.26262480000001
 Pt       5.54415257887714       6.40064309325553       3.26161295000000
 Pt       2.77192338555480       1.59985801198234       3.26363664000000
 Pt       1.38639103665489       2.39871551723398       1.00094199000000
 Pt       5.54436410998269       4.79916256286889       0.99921468999999
 Pt       6.93024580665077       7.19969017850131       1.00043291000000
 Pt       4.15824951332152       2.39877001723230       1.00022653000000
 Pt       8.31622249664951       4.79894867287552       0.99962525000001
 Pt       9.70210418331759       7.19947629850793       1.00084348000000
 Pt       6.93010789998834       2.39855612723892       1.00063710000000
 Pt       2.77250574331587       4.79937644286227       0.99880411999999
 Pt       4.15838742998394       7.19990406849468       1.00002234000000
VEC1       8.31557575000000       0.00000000000000       0.00000000000000
VEC2       4.15778787000000       7.20149984000000       0.00000000000000
37
Id 14 Energy(hartree)     -7.27130447 Min
 O        5.54297472932262       3.20313358509469       8.91863729138165
 Pt       8.31521707667734       4.80239132276887       7.78926429999999
 Pt       5.54298788335501       0.00160623149567       7.79128800000001
 Pt       6.92910248001618       2.40199877713227       7.79027615000001
 Pt      11.08707556334398       4.80244582276718       7.78854885000000
 Pt       8.31484637002164       0.00166073149398       7.79057254000001
 Pt       9.70096085668300       2.40178489713889       7.79068672000001
 Pt       5.54335870001053       4.80260520276224       7.78885373999999
 Pt       2.77112950668818       0.00182012148905       7.79087743000001
 Pt       4.15724410334936       2.40221266712564       7.78986559000000
 Pt       9.70154320444406       5.60130332801883       5.52585419000000
 Pt       6.92931401112173       0.80051823674563       5.52787788999997
 Pt       8.31542860778290       3.20091078238223       5.52686604000001
 Pt       4.15782645111042       5.60173109800558       5.52503306000000
 Pt       1.38559725778808       0.80094601673238       5.52705674999998
 Pt       2.77171185444925       3.20133855236898       5.52604491000001
 Pt       6.92968482777724       5.60151720801220       5.52544363000000
 Pt       4.15745563445490       0.80073212673900       5.52746732000000
 Pt       5.54357023111607       3.20112467237560       5.52645547000001
 Pt       6.92989636888279       4.00003666762556       3.26303535999997
 Pt       8.31601096554396       6.40042921326216       3.26202352000000
 Pt       5.54378176222162       1.59964412198896       3.26404721000000
 Pt       9.70175473554961       3.99982278763219       3.26344592999998
 Pt      11.08786933221078       6.40021532326878       3.26243407999997
 Pt       8.31564013888844       1.59943024199559       3.26445777999999
 Pt       4.15803798221597       4.00025055761894       3.26262480000001
 Pt       5.54415257887714       6.40064309325553       3.26161295000000
 Pt       2.77192338555480       1.59985801198234       3.26363664000000
 Pt       1.38639103665489       2.39871551723398       1.00094199000000
 Pt       5.54436410998269       4.79916256286889       0.99921468999999
 Pt       6.93024580665077       7.19969017850131       1.00043291000000
 Pt       4.15824951332152       2.39877001723230       1.00022653000000
 Pt       8.31622249664951       4.79894867287552       0.99962525000001
 Pt       9.70210418331759       7.19947629850793       1.00084348000000
 Pt       6.93010789998834       2.39855612723892       1.00063710000000
 Pt       2.77250574331587       4.79937644286227       0.99880411999999
 Pt       4.15838742998394       7.19990406849468       1.00002234000000
VEC1       8.31557575000000       0.00000000000000       0.00000000000000
VEC2       4.15778787000000       7.20149984000000       0.00000000000000
37
Id 15 Energy(hartree)     -7.27129545 Min
 O        4.15691650225507       0.80241128101551       8.91973902815064
 Pt       8.31521707667734       4.80239132276887       7.78926429999999
 Pt       5.54298788335501       0.00160623149567       7.79128800000001
 Pt       6.92910248001618       2.40199877713227       7.79027615000001
 Pt      11.08707556334398       4.80244582276718       7.78854885000000
[...]
 Pt       8.31484625003275       0.00166095438842       7.79057254000001
 Pt       9.70096065009412       2.40178497143334       7.79068672000001
 Pt       5.54335874002163       4.80260512825669       7.78885373999999
 Pt       2.77112972009929       0.00182034438348       7.79087743000001
 Pt       4.15724422996046       2.40221274142009       7.78986559000000
 Pt       9.70154299325518       5.60130320411327       5.52585419000000
 Pt       6.92931397333284       0.80051841024007       5.52787788999997
 Pt       8.31542848339401       3.20091080707667       5.52686604000001
 Pt       4.15782657332153       5.60173097410002       5.52503306000000
 Pt       1.38559755339918       0.80094619022682       5.52705674999998
 Pt       2.77171206326036       3.20133857706342       5.52604491000001
 Pt       6.92968478338836       5.60151708410665       5.52544363000000
 Pt       4.15745576346601       0.80073230023344       5.52746732000000
 Pt       5.54357027332718       3.20112469707005       5.52645547000001
 Pt       6.92989632669389       4.00003664292001       3.26303535999997
 Pt       8.31601083655508       6.40042903975661       3.26202352000000
 Pt       5.54378180663273       1.59964424588340       3.26404721000000
 Pt       9.70175452656073       3.99982276292663       3.26344592999998
 Pt      11.08786903662190       6.40021514976323       3.26243407999997
 Pt       8.31564001669956       1.59943036609003       3.26445777999999
 Pt       4.15803810662708       4.00025053291338       3.26262480000001
 Pt       5.54415261668824       6.40064291974998       3.26161295000000
 Pt       2.77192359676590       1.59985813587678       3.26363664000000
 Pt       1.38639133006599       2.39871559172843       1.00094199000000
 Pt       5.54436414999380       4.79916248856334       0.99921468999999
 Pt       6.93024575986188       7.19968995559576       1.00043291000000
 Pt       4.15824963993263       2.39877009172674       1.00022653000000
 Pt       8.31622236986063       4.79894859856997       0.99962525000001
 Pt       9.70210396992871       7.19947607560239       1.00084348000000
 Pt       6.93010785999945       2.39855620173337       1.00063710000000
 Pt       2.77250594992697       4.79937636855672       0.99880411999999
 Pt       4.15838754999505       7.19990384538914       1.00002234000000
VEC1       8.31557575000000       0.00000000000000       0.00000000000000
VEC2       4.15778787000000       7.20149984000000       0.00000000000000
37
Id 40 Energy(hartree)     -7.25284954 TS
 O        5.54283223296313       2.61268457314857       9.08376543607026
 Pt       8.31521707667734       4.80239132276887       7.78926429999999
 Pt       5.54298788335501       0.00160623149567       7.79128800000001
 Pt       6.92910248001618       2.40199877713227       7.79027615000001
 Pt      11.08707556334398       4.80244582276718       7.78854885000000
 Pt       8.31484637002164       0.00166073149398       7.79057254000001
 Pt       9.70096085668300       2.40178489713889       7.79068672000001
 Pt       5.54335870001053       4.80260520276224       7.78885373999999
 Pt       2.77112950668818       0.00182012148905       7.79087743000001
 Pt       4.15724410334936       2.40221266712564       7.78986559000000
 Pt       9.70154320444406       5.60130332801883       5.52585419000000
 Pt       6.92931401112173       0.80051823674563       5.52787788999997
 Pt       8.31542860778290       3.20091078238223       5.52686604000001
 Pt       4.15782645111042       5.60173109800558       5.52503306000000
 Pt       1.38559725778808       0.80094601673238       5.52705674999998
 Pt       2.77171185444925       3.20133855236898       5.52604491000001
 Pt       6.92968482777724       5.60151720801220       5.52544363000000
 Pt       4.15745563445490       0.80073212673900       5.52746732000000
 Pt       5.54357023111607       3.20112467237560       5.52645547000001
 Pt       6.92989636888279       4.00003666762556       3.26303535999997
 Pt       8.31601096554396       6.40042921326216       3.26202352000000
 Pt       5.54378176222162       1.59964412198896       3.26404721000000
 Pt       9.70175473554961       3.99982278763219       3.26344592999998
 Pt      11.08786933221078       6.40021532326878       3.26243407999997
 Pt       8.31564013888844       1.59943024199559       3.26445777999999
 Pt       4.15803798221597       4.00025055761894       3.26262480000001
 Pt       5.54415257887714       6.40064309325553       3.26161295000000
 Pt       2.77192338555480       1.59985801198234       3.26363664000000
 Pt       1.38639103665489       2.39871551723398       1.00094199000000
 Pt       5.54436410998269       4.79916256286889       0.99921468999999
 Pt       6.93024580665077       7.19969017850131       1.00043291000000
 Pt       4.15824951332152       2.39877001723230       1.00022653000000
 Pt       8.31622249664951       4.79894867287552       0.99962525000001
 Pt       9.70210418331759       7.19947629850793       1.00084348000000
 Pt       6.93010789998834       2.39855612723892       1.00063710000000
 Pt       2.77250574331587       4.79937644286227       0.99880411999999
 Pt       4.15838742998394       7.19990406849468       1.00002234000000
VEC1       8.31557575000000       0.00000000000000       0.00000000000000
VEC2       4.15778787000000       7.20149984000000       0.00000000000000
37
Id 41 Energy(hartree)     -7.25283532 TS
 O        2.77183362680094       2.61264120533634       9.08400535765242
 Pt       8.31521695008846       4.80239124826331       7.78926429999999
 Pt       5.54298793016612       0.00160645459011       7.79128800000001
 Pt       6.92910244002729       2.40199885142671       7.79027615000001
 Pt      11.08707526995510       4.80244574826163       7.78854885000000
 Pt       8.31484625003275       0.00166095438842       7.79057254000001
 Pt       9.70096065009412       2.40178497143334       7.79068672000001
 Pt       5.54335874002163       4.80260512825669       7.78885373999999
 Pt       2.77112972009929       0.00182034438348       7.79087743000001
 Pt       4.15724422996046       2.40221274142009       7.78986559000000
 Pt       9.70154299325518       5.60130320411327       5.52585419000000
 Pt       6.92931397333284       0.80051841024007       5.52787788999997
 Pt       8.31542848339401       3.20091080707667       5.52686604000001
 Pt       4.15782657332153       5.60173097410002       5.52503306000000
 Pt       1.38559755339918       0.80094619022682       5.52705674999998
 Pt       2.77171206326036       3.20133857706342       5.52604491000001
 Pt       6.92968478338836       5.60151708410665       5.52544363000000
 Pt       4.15745576346601       0.80073230023344       5.52746732000000
 Pt       5.54357027332718       3.20112469707005       5.52645547000001
 Pt       6.92989632669389       4.00003664292001       3.26303535999997
 Pt       8.31601083655508       6.40042903975661       3.26202352000000
 Pt       5.54378180663273       1.59964424588340       3.26404721000000
 Pt       9.70175452656073       3.99982276292663       3.26344592999998
 Pt      11.08786903662190       6.40021514976323       3.26243407999997
 Pt       8.31564001669956       1.59943036609003       3.26445777999999
 Pt       4.15803810662708       4.00025053291338       3.26262480000001
 Pt       5.54415261668824       6.40064291974998       3.26161295000000
 Pt       2.77192359676590       1.59985813587678       3.26363664000000
 Pt       1.38639133006599       2.39871559172843       1.00094199000000
 Pt       5.54436414999380       4.79916248856334       0.99921468999999
 Pt       6.93024575986188       7.19968995559576       1.00043291000000
 Pt       4.15824963993263       2.39877009172674       1.00022653000000
 Pt       8.31622236986063       4.79894859856997       0.99962525000001
 Pt       9.70210396992871       7.19947607560239       1.00084348000000
 Pt       6.93010785999945       2.39855620173337       1.00063710000000
 Pt       2.77250594992697       4.79937636855672       0.99880411999999
 Pt       4.15838754999505       7.19990384538914       1.00002234000000
VEC1       8.31557575000000       0.00000000000000       0.00000000000000
VEC2       4.15778787000000       7.20149984000000       0.00000000000000
37
Id 42 Energy(hartree)     -7.25283276 TS
 O       10.21278858358174       5.89630666639388       9.08370287269173
 Pt       8.31521676020513       4.80239113650498       7.78926429999999
 Pt       5.54298800038278       0.00160678923177       7.79128800000001
 Pt       6.92910238004396       2.40199896286838       7.79027615000001
 Pt      11.08707482987177       4.80244563650330       7.78854885000000
 Pt       8.31484607004943       0.00166128873008       7.79057254000001
 Pt       9.70096034021079       2.40178508287500       7.79068672000001
 Pt       5.54335880003830       4.80260501649836       7.78885373999999
 Pt       2.77113004021594       0.00182067872514       7.79087743000001
 Pt       4.15724441987712       2.40221285286175       7.78986559000000
 Pt       9.70154267647186       5.60130301825495       5.52585419000000
 Pt       6.92931391664951       0.80051867048173       5.52787788999997
 Pt       8.31542829681068       3.20091084411834       5.52686604000001
 Pt       4.15782675663819       5.60173078824170       5.52503306000000
 Pt       1.38559799681584       0.80094645046848       5.52705674999998
 Pt       2.77171237647701       3.20133861410509       5.52604491000001
 Pt       6.92968471680503       5.60151689824832       5.52544363000000
 Pt       4.15745595698267       0.80073256047510       5.52746732000000
 Pt       5.54357033664385       3.20112473411171       5.52645547000001
 Pt       6.92989626341057       4.00003660586168       3.26303535999997
 Pt       8.31601064307175       6.40042877949829       3.26202352000000
 Pt       5.54378187324939       1.59964443172506       3.26404721000000
 Pt       9.70175421307741       3.99982272586830       3.26344592999998
 Pt      11.08786859323858       6.40021488950491       3.26243407999997
 Pt       8.31563983341623       1.59943055223169       3.26445777999999
 Pt       4.15803829324374       4.00025049585505       3.26262480000001
 Pt       5.54415267340491       6.40064265949166       3.26161295000000
 Pt       2.77192391358256       1.59985832171844       3.26363664000000
 Pt       1.38639177018264       2.39871570347009       1.00094199000000
 Pt       5.54436421001046       4.79916237710501       0.99921468999999
 Pt       6.93024568967855       7.19968962123744       1.00043291000000
 Pt       4.15824982984929       2.39877020346840       1.00022653000000
 Pt       8.31622217967730       4.79894848711164       0.99962525000001
 Pt       9.70210364984538       7.19947574124406       1.00084348000000
 Pt       6.93010780001612       2.39855631347503       1.00063710000000
 Pt       2.77250625984363       4.79937625709838       0.99880411999999
 Pt       4.15838773001171       7.19990351073081       1.00002234000000
VEC1       8.31557575000000       0.00000000000000       0.00000000000000
VEC2       4.15778787000000       7.20149984000000       0.00000000000000
37
Id 43 Energy(hartree)     -7.25283253 TS
 O        7.44014581076043       5.89680744043227       9.08376386641330
 Pt       8.31521695008846       4.80239124826331       7.78926429999999
 Pt       5.54298793016612       0.00160645459011       7.79128800000001
 Pt       6.92910244002729       2.40199885142671       7.79027615000001
 Pt      11.08707526995510       4.80244574826163       7.78854885000000
 Pt       8.31484625003275       0.00166095438842       7.79057254000001
 Pt       9.70096065009412       2.40178497143334       7.79068672000001
 Pt       5.54335874002163       4.80260512825669       7.78885373999999
 Pt       2.77112972009929       0.00182034438348       7.79087743000001
 Pt       4.15724422996046       2.40221274142009       7.78986559000000
 Pt       9.70154299325518       5.60130320411327       5.52585419000000
 Pt       6.92931397333284       0.80051841024007       5.52787788999997
 Pt       8.31542848339401       3.20091080707667       5.52686604000001
 Pt       4.15782657332153       5.60173097410002       5.52503306000000
 Pt       1.38559755339918       0.80094619022682       5.52705674999998
 Pt       2.77171206326036       3.20133857706342       5.52604491000001
 Pt       6.92968478338836       5.60151708410665       5.52544363000000
 Pt       4.15745576346601       0.80073230023344       5.52746732000000
 Pt       5.54357027332718       3.20112469707005       5.52645547000001
 Pt       6.92989632669389       4.00003664292001       3.26303535999997
 Pt       8.31601083655508       6.40042903975661       3.26202352000000
 Pt       5.54378180663273       1.59964424588340       3.26404721000000
 Pt       9.70175452656073       3.99982276292663       3.26344592999998
 Pt      11.08786903662190       6.40021514976323       3.26243407999997
 Pt       8.31564001669956       1.59943036609003       3.26445777999999
 Pt       4.15803810662708       4.00025053291338       3.26262480000001
 Pt       5.54415261668824       6.40064291974998       3.26161295000000
 Pt       2.77192359676590       1.59985813587678       3.26363664000000
 Pt       1.38639133006599       2.39871559172843       1.00094199000000
 Pt       5.54436414999380       4.79916248856334       0.99921468999999
 Pt       6.93024575986188       7.19968995559576       1.00043291000000
 Pt       4.15824963993263       2.39877009172674       1.00022653000000
 Pt       8.31622236986063       4.79894859856997       0.99962525000001
 Pt       9.70210396992871       7.19947607560239       1.00084348000000
 Pt       6.93010785999945       2.39855620173337       1.00063710000000
 Pt       2.77250594992697       4.79937636855672       0.99880411999999
 Pt       4.15838754999505       7.19990384538914       1.00002234000000
VEC1       8.31557575000000       0.00000000000000       0.00000000000000
VEC2       4.15778787000000       7.20149984000000       0.00000000000000
37
Id 44 Energy(hartree)     -7.25283184 TS
 O        4.15746784048388       5.01087225472313       9.08274381351868
 Pt       8.31521695008846       4.80239124826331       7.78926429999999
 Pt       5.54298793016612       0.00160645459011       7.79128800000001
 Pt       6.92910244002729       2.40199885142671       7.79027615000001
 Pt      11.08707526995510       4.80244574826163       7.78854885000000
 Pt       8.31484625003275       0.00166095438842       7.79057254000001
 Pt       9.70096065009412       2.40178497143334       7.79068672000001
 Pt       5.54335874002163       4.80260512825669       7.78885373999999
 Pt       2.77112972009929       0.00182034438348       7.79087743000001
 Pt       4.15724422996046       2.40221274142009       7.78986559000000
 Pt       9.70154299325518       5.60130320411327       5.52585419000000
 Pt       6.92931397333284       0.80051841024007       5.52787788999997
 Pt       8.31542848339401       3.20091080707667       5.52686604000001
 Pt       4.15782657332153       5.60173097410002       5.52503306000000
 Pt       1.38559755339918       0.80094619022682       5.52705674999998
 Pt       2.77171206326036       3.20133857706342       5.52604491000001
 Pt       6.92968478338836       5.60151708410665       5.52544363000000
 Pt       4.15745576346601       0.80073230023344       5.52746732000000
 Pt       5.54357027332718       3.20112469707005       5.52645547000001
 Pt       6.92989632669389       4.00003664292001       3.26303535999997
 Pt       8.31601083655508       6.40042903975661       3.26202352000000
 Pt       5.54378180663273       1.59964424588340       3.26404721000000
 Pt       9.70175452656073       3.99982276292663       3.26344592999998
 Pt      11.08786903662190       6.40021514976323       3.26243407999997
 Pt       8.31564001669956       1.59943036609003       3.26445777999999
 Pt       4.15803810662708       4.00025053291338       3.26262480000001
 Pt       5.54415261668824       6.40064291974998       3.26161295000000
 Pt       2.77192359676590       1.59985813587678       3.26363664000000
 Pt       1.38639133006599       2.39871559172843       1.00094199000000
 Pt       5.54436414999380       4.79916248856334       0.99921468999999
 Pt       6.93024575986188       7.19968995559576       1.00043291000000
 Pt       4.15824963993263       2.39877009172674       1.00022653000000
 Pt       8.31622236986063       4.79894859856997       0.99962525000001
 Pt       9.70210396992871       7.19947607560239       1.00084348000000
 Pt       6.93010785999945       2.39855620173337       1.00063710000000
 Pt       2.77250594992697       4.79937636855672       0.99880411999999
 Pt       4.15838754999505       7.19990384538914       1.00002234000000
VEC1       8.31557575000000       0.00000000000000       0.00000000000000
VEC2       4.15778787000000       7.20149984000000       0.00000000000000
37
Id 45 Energy(hartree)     -7.25282175 TS
 O        4.66851817035287       5.89665957954878       9.08342349580971
 Pt       8.31521688679402       4.80239121101054       7.78926429999999
 Pt       5.54298795357167       0.00160656613733       7.79128800000001
 Pt       6.92910242003285       2.40199888857393       7.79027615000001
 Pt      11.08707512326066       4.80244571100885       7.78854885000000
 Pt       8.31484619003831       0.00166106583564       7.79057254000001
 Pt       9.70096054679967       2.40178500858056       7.79068672000001
 Pt       5.54335876002719       4.80260509100391       7.78885373999999
 Pt       2.77112982680484       0.00182045583070       7.79087743000001
 Pt       4.15724429326602       2.40221277856730       7.78986559000000
 Pt       9.70154288766074       5.60130314216050       5.52585419000000
 Pt       6.92931395443840       0.80051849698729       5.52787788999997
 Pt       8.31542842119957       3.20091081942389       5.52686604000001
 Pt       4.15782663442709       5.60173091214725       5.52503306000000
 Pt       1.38559770120474       0.80094627697404       5.52705674999998
 Pt       2.77171216766591       3.20133858941064       5.52604491000001
 Pt       6.92968476119391       5.60151702215387       5.52544363000000
 Pt       4.15745582797157       0.80073238698066       5.52746732000000
 Pt       5.54357029443274       3.20112470941727       5.52645547000001
 Pt       6.92989630559946       4.00003663056723       3.26303535999997
 Pt       8.31601077206063       6.40042895300383       3.26202352000000
 Pt       5.54378182883829       1.59964430783062       3.26404721000000
 Pt       9.70175442206629       3.99982275057386       3.26344592999998
 Pt      11.08786888882746       6.40021506301046       3.26243407999997
 Pt       8.31563995560512       1.59943042813725       3.26445777999999
 Pt       4.15803816883263       4.00025052056060       3.26262480000001
 Pt       5.54415263559380       6.40064283299721       3.26161295000000
 Pt       2.77192370237146       1.59985819782400       3.26363664000000
 Pt       1.38639147677154       2.39871562897565       1.00094199000000
 Pt       5.54436416999935       4.79916245141056       0.99921468999999
 Pt       6.93024573646744       7.19968984414298       1.00043291000000
 Pt       4.15824970323818       2.39877012897396       1.00022653000000
 Pt       8.31622230646618       4.79894856141719       0.99962525000001
 Pt       9.70210386323427       7.19947596414961       1.00084348000000
 Pt       6.93010784000501       2.39855623898059       1.00063710000000
 Pt       2.77250605323253       4.79937633140394       0.99880411999999
 Pt       4.15838761000061       7.19990373383636       1.00002234000000
VEC1       8.31557575000000       0.00000000000000       0.00000000000000
VEC2       4.15778787000000       7.20149984000000       0.00000000000000

AMS application finished. Exiting.
NORMAL TERMINATION
     Total cpu time:       1.04
  Total system time:       0.12
 Total elapsed time:       1.18
