

 Parallel Execution: Process Information
 ==============================================================================
 Rank   Node Name                              NodeID   MyNodeRank  NodeMaster
    0   aguirre-XPS-13-7390                       0          0          0
    1   aguirre-XPS-13-7390                       0          1         -1
    2   aguirre-XPS-13-7390                       0          2         -1
    3   aguirre-XPS-13-7390                       0          3         -1
 ==============================================================================


May use up to 7489MB of RAM as shared memory on node 0

 *******************************************************************************
 *                                                                             *
 *  --------------------------------                                           *
 *   Amsterdam Modeling Suite (AMS)              2021.205                      *
 *  --------------------------------                                           *
 *                                               r98817 2021-11-22             *
 *                                                                             *
 *                                                                             *
 *                              =================                              *
 *                              |               |                              *
 *                              |     A M S     |                              *
 *                              |               |                              *
 *                              =================                              *
 *                                                                             *
 *                                                                             *
 *   Online information and documentation:  https://www.scm.com/support/       *
 *   E-mail:  support@scm.com   info@scm.com                                   *
 *                                                                             *
 *   Scientific publications using AMS results must be properly referenced     *
 *   See the User Manuals (or the web site) for recommended citations          *
 *   The terms and conditions of the End User License Agreement apply to       *
 *   the use of AMS, https://www.scm.com/license-terms/                        *
 *                                                                             *
 ***********************  x86_64_linux_gnu7 / intelmpi  ************************
 
 Licensed to: Dr. Nestor Aguirre Castiblanco  / SCM / Amsterdam / NETHERLANDS 2021-10-27 16:31:51
 SCM User ID: u22021
  
 AMS 2021.205  RunTime: Nov26-2021 17:37:46  ShM Nodes: 1  Procs: 4

 AMS jobname: BindingSites
 AMS jobid  : 651248427

 Start   directory: /home/aguirre/Develop/pyzacros/test_RKFLoader.003/BindingSites/
 Results directory: /home/aguirre/Develop/pyzacros/test_RKFLoader.003/BindingSites/
 Scratch directory: /scratch/aguirre/amstmp_BindingSites_kid0.651248427/


 Communication costs MPI_COMM_WORLD:      0.643 usec per message,   0.0092 usec per 8-byte item
 Communication costs for intra-node:      0.704 usec per message,   0.0088 usec per 8-byte item

 RNG seed: -114109971 1487969770 52306603 -609660568 868895441 356606911 -642089305 -662221559
 MPI rank    0: Number of processors available to this process:      2
 MPI rank    0: Default max number of OpenMP threads:                2
 MPI rank    0: The OMP_NUM_THREADS environment variable is not set!
 MPI rank    0: Restrict max number of OpenMP threads to:            1
Force field identifier: Reactive MD-force field: C/H/O/N/S/F/Pt/
 Triple bond stabilization enabled for C-O only
 Non-bonding interaction type[nonbontype]:
 No inner wall, shielding
 Warning:changed vval3 to valf for X 

Reference geometry:
   Note: All states are going to be aligned with this reference

--------
Geometry
--------
Formula: Pt36
Atoms
  Index Symbol   x (angstrom)   y (angstrom)   z (angstrom)
      1     Pt     8.31521714     4.80239136     7.78926430       region=surface
      2     Pt     5.54298786     0.00160612     7.79128800       region=surface
      3     Pt     6.92910250     2.40199874     7.79027615       region=surface
      4     Pt    11.08707571     4.80244586     7.78854885       region=surface
      5     Pt     8.31484643     0.00166062     7.79057254       region=surface
      6     Pt     9.70096096     2.40178486     7.79068672       region=surface
      7     Pt     5.54335868     4.80260524     7.78885374       region=surface
      8     Pt     2.77112940     0.00182001     7.79087743       region=surface
      9     Pt     4.15724404     2.40221263     7.78986559       region=surface
     10     Pt     9.70154331     5.60130339     5.52585419       region=surface
     11     Pt     6.92931403     0.80051815     5.52787789       region=surface
     12     Pt     8.31542867     3.20091077     5.52686604       region=surface
     13     Pt     4.15782639     5.60173116     5.52503306       region=surface
     14     Pt     1.38559711     0.80094593     5.52705675       region=surface
     15     Pt     2.77171175     3.20133854     5.52604491       region=surface
     16     Pt     6.92968485     5.60151727     5.52544363       region=surface
     17     Pt     4.15745557     0.80073204     5.52746732       region=surface
     18     Pt     5.54357021     3.20112466     5.52645547       region=surface
     19     Pt     6.92989639     4.00003668     3.26303536       region=surface
     20     Pt     8.31601103     6.40042930     3.26202352       region=surface
     21     Pt     5.54378174     1.59964406     3.26404721       region=surface
     22     Pt     9.70175484     3.99982280     3.26344593       region=surface
     23     Pt    11.08786948     6.40021541     3.26243408       region=surface
     24     Pt     8.31564020     1.59943018     3.26445778       region=surface
     25     Pt     4.15803792     4.00025057     3.26262480       region=surface
     26     Pt     5.54415256     6.40064318     3.26161295       region=surface
     27     Pt     2.77192328     1.59985795     3.26363664       region=surface
     28     Pt     1.38639089     2.39871548     1.00094199       region=surface
     29     Pt     5.54436409     4.79916260     0.99921469       region=surface
     30     Pt     6.93024583     7.19969029     1.00043291       region=surface
     31     Pt     4.15824945     2.39876998     1.00022653       region=surface
     32     Pt     8.31622256     4.79894871     0.99962525       region=surface
     33     Pt     9.70210429     7.19947641     1.00084348       region=surface
     34     Pt     6.93010792     2.39855609     1.00063710       region=surface
     35     Pt     2.77250564     4.79937648     0.99880412       region=surface
     36     Pt     4.15838737     7.19990418     1.00002234       region=surface

Lattice vectors (angstrom)
      1     8.31557575     0.00000000     0.00000000
      2     4.15778787     7.20149984     0.00000000

Unit cell area (angstrom^2)        59.88462

Total System Charge             0.00000


Restoring energy landscape from: /home/aguirre/Develop/pyzacros/test_RKFLoader.003/PESExploration

-------------------------
Checking Duplicate States
-------------------------

      Id         Energy      DB
   ----------------------------
   Local minima
       1      -7.278632     New
       2      -7.278618     New
       3      -7.278615     New
       4      -7.278614     New
       5      -7.278607     New
       6      -7.278599     New
       7      -7.278596     New
       8      -7.278585     New
       9      -7.278577     New
      10      -7.271337     New
      11      -7.271322     New
      12      -7.271315     New
      13      -7.271311     New
      14      -7.271304     New
      15      -7.271295     New
      16      -7.271282     New
      17      -7.271276     New
      18      -7.271275     New
   Transition states
      19      -7.252908   NewTS 10 <--> 6
      20      -7.252901   NewTS 4 <--> 11
      21      -7.252890   NewTS 5 <--> 11
      22      -7.252887   NewTS 2 <--> 13
      23      -7.252887   NewTS 8 <--> 10
      24      -7.252884   NewTS 9 <--> 12
      25      -7.252882   NewTS 3 <--> 13
      26      -7.252879   NewTS 13 <--> 5
      27      -7.252879   NewTS 15 <--> 1
      28      -7.252876   NewTS 6 <--> 12
      29      -7.252875   NewTS 14 <--> 9
      30      -7.252871   NewTS 3 <--> 15
      31      -7.252869   NewTS 15 <--> 4
      32      -7.252868   NewTS 14 <--> 8
      33      -7.252863   NewTS 5 <--> 10
      34      -7.252862   NewTS 7 <--> 11
      35      -7.252857   NewTS 16 <--> 7
      36      -7.252855   NewTS 18 <--> 2
      37      -7.252853   NewTS 6 <--> 17
      38      -7.252852   NewTS 1 <--> 17
      39      -7.252851   NewTS 8 <--> 16
      40      -7.252850   NewTS 3 <--> 14
      41      -7.252835   NewTS 4 <--> 12
      42      -7.252833   NewTS 17 <--> 2
      43      -7.252833   NewTS 1 <--> 16
      44      -7.252832   NewTS 9 <--> 18
      45      -7.252822   NewTS 18 <--> 7

> Sorting Energy Landscape by Energy ... DONE

----------------
Energy Landscape
----------------

        Id        Energy(a.u.)         RE(eV)   RE(kcal/mol)    Counts    Crit. point
     --------------------------------------------------------------------------------
         1           -7.278632        0.00000         0.0000         1            Min
         2           -7.278618        0.00038         0.0088         2            Min
         3           -7.278615        0.00046         0.0106         1            Min
         4           -7.278614        0.00050         0.0114         1            Min
         5           -7.278607        0.00068         0.0156         1            Min
         6           -7.278599        0.00088         0.0203         1            Min
         7           -7.278596        0.00098         0.0225         2            Min
         8           -7.278585        0.00127         0.0294         1            Min
         9           -7.278577        0.00148         0.0341         1            Min
        10           -7.271337        0.19849         4.5773         2            Min
        11           -7.271322        0.19890         4.5868         3            Min
        12           -7.271315        0.19910         4.5914         3            Min
        13           -7.271311        0.19920         4.5936         2            Min
        14           -7.271304        0.19939         4.5979         1            Min
        15           -7.271295        0.19963         4.6036         1            Min
        16           -7.271282        0.20000         4.6120         2            Min
        17           -7.271276        0.20015         4.6155         2            Min
        18           -7.271275        0.20018         4.6162         1            Min
        19           -7.252908        0.69999        16.1421         6             TS 10<-->6      1.72E+13:1.92E+13*  
        20           -7.252901        0.70017        16.1464        15             TS 4<-->11      1.92E+13:1.72E+13   
        21           -7.252890        0.70048        16.1533         8             TS 5<-->11      1.92E+13:1.73E+13   
        22           -7.252887        0.70054        16.1549         8             TS 2<-->13      1.92E+13:1.73E+13   
        23           -7.252887        0.70056        16.1553        13             TS 8<-->10      1.92E+13:1.72E+13   
        24           -7.252884        0.70064        16.1572        16             TS 9<-->12      1.92E+13:1.72E+13   
        25           -7.252882        0.70068        16.1581         9             TS 3<-->13      1.92E+13:1.72E+13   
        26           -7.252879        0.70076        16.1599         8             TS 13<-->5      1.72E+13:1.92E+13   
        27           -7.252879        0.70078        16.1603        13             TS 15<-->1      1.73E+13:1.92E+13   
        28           -7.252876        0.70085        16.1619         7             TS 6<-->12      1.92E+13:1.72E+13   
        29           -7.252875        0.70087        16.1623         7             TS 14<-->9      1.72E+13:1.92E+13   
        30           -7.252871        0.70100        16.1654         8             TS 3<-->15      1.92E+13:1.72E+13   
        31           -7.252869        0.70104        16.1664        11             TS 15<-->4      1.72E+13:1.92E+13   
        32           -7.252868        0.70106        16.1668         9             TS 14<-->8      1.72E+13:1.92E+13   
        33           -7.252863        0.70121        16.1703         8             TS 5<-->10      1.92E+13:1.72E+13   
        34           -7.252862        0.70124        16.1710         5             TS 7<-->11      1.92E+13:1.73E+13   
        35           -7.252857        0.70137        16.1740         6             TS 16<-->7      1.72E+13:1.92E+13   
        36           -7.252855        0.70142        16.1751         9             TS 18<-->2      1.72E+13:1.92E+13   
        37           -7.252853        0.70146        16.1761         6             TS 6<-->17      1.92E+13:1.72E+13   
        38           -7.252852        0.70151        16.1771         5             TS 1<-->17      1.92E+13:1.72E+13   
        39           -7.252851        0.70154        16.1779         6             TS 8<-->16      1.92E+13:1.72E+13   
        40           -7.252850        0.70157        16.1786        12             TS 3<-->14      1.92E+13:1.72E+13   
        41           -7.252835        0.70196        16.1875         8             TS 4<-->12      1.92E+13:1.72E+13   
        42           -7.252833        0.70203        16.1891         5             TS 17<-->2      1.72E+13:1.92E+13   
        43           -7.252833        0.70203        16.1893         9             TS 1<-->16      1.92E+13:1.72E+13   
        44           -7.252832        0.70205        16.1897         9             TS 9<-->18      1.92E+13:1.72E+13   
        45           -7.252822        0.70233        16.1960        11             TS 18<-->7      1.72E+13:1.92E+13   

*) Pre-exponential factors forward and backward in s^-1 or Hz

Number of configurations                            45
Number of local minima                              18
Number of transition states                         27
Energy range (a.u.)                           0.025810
Energy range (eV)                              0.70233
Energy range (kcal/mol)                        16.1960


       *******************************
       *  Automated PES exploration  *
       *******************************

--------------------------
PES Exploration Parameters
--------------------------

Exploring 3 degrees of freedom

SeedStates                                1   1   2   3   4   5   6   7   8   9  10  11  12  13  14  15  16  17  18

RandomSeed                                   758635643
Temperature                                  300.00000
FiniteDifference                               0.01000
WriteHistory                                 converged
NumExpeditions                                       1
NumExplorers                                         1
DynamicSeedStates                                    T

   ProcessSearch
   -------------
   MinimizeFirst                                     T
   MinimizationOffset                          0.20000

   SaddleSearch
   ------------
   MaxIterations                                   400
   DisplaceMinNorm                             0.00000
   Method                                     min_mode
   MinModeMethod                                 dimer
   MaxEnergy                                  20.00000
   DisplaceMagnitude                           0.10000
   DisplaceRadius                              4.00000
   RemoveRotation                                    F
   RandomMode                                        T
   DisplaceRandomWeight                        0.00000
   DisplaceListedAtomWeight                    0.00000
   DisplaceListedTypeWeight                    0.00000
   DisplaceUnderCoordinatedWeight              0.00000
   DisplaceLeastCoordinatedWeight              0.00000
   DisplaceNotFCCHCPWeight                     0.00000
   DisplaceNotTCPBCCWeight                     0.00000
   DisplaceNotTCPWeight                        0.00000
   DisplaceWaterWeight                         0.00000
   DisplaceAlongNormalModesWeight              0.00000
   DispListedAtoms                                    
   DispListedTypes                                    
   DisplaceAllAtoms                                  F
   DisplaceAllListed                                 F
   DisplaceMaxCoordination                          11

   Prefactor
   ---------
   Rate                                           htst

      Optimizer
      ---------
      Method                                        cg
      MaxIterations                                400
      ConvergedForce                           0.00500
      MaxMove                                  0.20000
      TimeStep                                 1.00000
      MaxTimeStep                              2.50000
         
         CG (Conjugate Gradient)
         -----------------------
         NoOvershooting                              F
         KnockOutMaxMove                             F
         LineConverged                         0.10000
         LineSearch                                  F
         MaxIterBeforeReset                          0
         LineSearchMaxIter                          10
   
   StructureComparison
   -------------------
   DistanceDifference                          0.10000
   NeighborCutoff                              3.50000
   CheckRotation                                     F
   IndistinguishableAtoms                            T
   CheckSymmetry                                     F
   EnergyDifference                            0.10000
   RemoveTranslation                                 F
   
   StatesAlignment
   ---------------
   ReferenceRegion                             surface
   RemoveUnaligned                                   F
   DistanceDifference                          0.10000

   BindingSites
   ------------
   AllowDisconnected                                 F
   DistanceDifference                          0.10000

--------
Geometry
--------
Formula: OPt36
Atoms
  Index Symbol   x (angstrom)   y (angstrom)   z (angstrom)
      1      O     5.54003937     1.60484089     8.92740946       region=adsorbate
      2     Pt     8.31521714     4.80239136     7.78926430       region=surface
      3     Pt     5.54298786     0.00160612     7.79128800       region=surface
      4     Pt     6.92910250     2.40199874     7.79027615       region=surface
      5     Pt    11.08707571     4.80244586     7.78854885       region=surface
      6     Pt     8.31484643     0.00166062     7.79057254       region=surface
      7     Pt     9.70096096     2.40178486     7.79068672       region=surface
      8     Pt     5.54335868     4.80260524     7.78885374       region=surface
      9     Pt     2.77112940     0.00182001     7.79087743       region=surface
     10     Pt     4.15724404     2.40221263     7.78986559       region=surface
     11     Pt     9.70154331     5.60130339     5.52585419       region=surface
     12     Pt     6.92931403     0.80051815     5.52787789       region=surface
     13     Pt     8.31542867     3.20091077     5.52686604       region=surface
     14     Pt     4.15782639     5.60173116     5.52503306       region=surface
     15     Pt     1.38559711     0.80094593     5.52705675       region=surface
     16     Pt     2.77171175     3.20133854     5.52604491       region=surface
     17     Pt     6.92968485     5.60151727     5.52544363       region=surface
     18     Pt     4.15745557     0.80073204     5.52746732       region=surface
     19     Pt     5.54357021     3.20112466     5.52645547       region=surface
     20     Pt     6.92989639     4.00003668     3.26303536       region=surface
     21     Pt     8.31601103     6.40042930     3.26202352       region=surface
     22     Pt     5.54378174     1.59964406     3.26404721       region=surface
     23     Pt     9.70175484     3.99982280     3.26344593       region=surface
     24     Pt    11.08786948     6.40021541     3.26243408       region=surface
     25     Pt     8.31564020     1.59943018     3.26445778       region=surface
     26     Pt     4.15803792     4.00025057     3.26262480       region=surface
     27     Pt     5.54415256     6.40064318     3.26161295       region=surface
     28     Pt     2.77192328     1.59985795     3.26363664       region=surface
     29     Pt     1.38639089     2.39871548     1.00094199       region=surface
     30     Pt     5.54436409     4.79916260     0.99921469       region=surface
     31     Pt     6.93024583     7.19969029     1.00043291       region=surface
     32     Pt     4.15824945     2.39876998     1.00022653       region=surface
     33     Pt     8.31622256     4.79894871     0.99962525       region=surface
     34     Pt     9.70210429     7.19947641     1.00084348       region=surface
     35     Pt     6.93010792     2.39855609     1.00063710       region=surface
     36     Pt     2.77250564     4.79937648     0.99880412       region=surface
     37     Pt     4.15838737     7.19990418     1.00002234       region=surface

Lattice vectors (angstrom)
      1     8.31557575     0.00000000     0.00000000
      2     4.15778787     7.20149984     0.00000000

Unit cell area (angstrom^2)        59.88462

Total System Charge             0.00000


---------------------------
ReaxFF Engine configuration
---------------------------
Bond order cutoff                      0.001000
Force field                            CHONSFPtClNi.ff
Furman torsions                        F
Nonreactive                            F
Taper bond orders                      F
Torsion version                        original


-------------------------
Binding Sites Computation
-------------------------
 DeriveBindingSites: chemSysDB%states%Size() =           45

------------
EON Geometry
------------
Atoms
  Index Symbol   x (angstrom)   y (angstrom)   z (angstrom)  fix
      1     Pt     8.31521714     4.80239136    53.39436432    T
      2     Pt     5.54298786     0.00160612    53.39638802    T
      3     Pt     6.92910250     2.40199874    53.39537617    T
      4     Pt    11.08707571     4.80244586    53.39364887    T
      5     Pt     8.31484643     0.00166062    53.39567256    T
      6     Pt     9.70096096     2.40178486    53.39578674    T
      7     Pt     5.54335868     4.80260524    53.39395376    T
      8     Pt     2.77112940     0.00182001    53.39597745    T
      9     Pt     4.15724404     2.40221263    53.39496561    T
     10     Pt     9.70154331     5.60130339    51.13095421    T
     11     Pt     6.92931403     0.80051815    51.13297791    T
     12     Pt     8.31542867     3.20091077    51.13196606    T
     13     Pt     4.15782639     5.60173116    51.13013308    T
     14     Pt     1.38559711     0.80094593    51.13215677    T
     15     Pt     2.77171175     3.20133854    51.13114493    T
     16     Pt     6.92968485     5.60151727    51.13054365    T
     17     Pt     4.15745557     0.80073204    51.13256734    T
     18     Pt     5.54357021     3.20112466    51.13155549    T
     19     Pt     6.92989639     4.00003668    48.86813538    T
     20     Pt     8.31601103     6.40042930    48.86712354    T
     21     Pt     5.54378174     1.59964406    48.86914723    T
     22     Pt     9.70175484     3.99982280    48.86854595    T
     23     Pt    11.08786948     6.40021541    48.86753410    T
     24     Pt     8.31564020     1.59943018    48.86955780    T
     25     Pt     4.15803792     4.00025057    48.86772482    T
     26     Pt     5.54415256     6.40064318    48.86671297    T
     27     Pt     2.77192328     1.59985795    48.86873666    T
     28     Pt     1.38639089     2.39871548    46.60604201    T
     29     Pt     5.54436409     4.79916260    46.60431471    T
     30     Pt     6.93024583     7.19969029    46.60553293    T
     31     Pt     4.15824945     2.39876998    46.60532655    T
     32     Pt     8.31622256     4.79894871    46.60472527    T
     33     Pt     9.70210429     7.19947641    46.60594350    T
     34     Pt     6.93010792     2.39855609    46.60573712    T
     35     Pt     2.77250564     4.79937648    46.60390414    T
     36     Pt     4.15838737     7.19990418    46.60512236    T

Box (angstrom)
      1     8.31557575     0.00000000     0.00000000
      2     4.15778787     7.20149984     0.00000000
      3     0.00000000     0.00000000   100.00000000

Inverse Box (angstrom^-1)
      1     0.12025626    -0.00000000     0.00000000
      2    -0.06942998     0.13885996    -0.00000000
      3    -0.00000000    -0.00000000     0.01000000

Total System Charge             0.00000


------------
EON Geometry
------------
Atoms
  Index Symbol   x (angstrom)   y (angstrom)   z (angstrom)  fix
      1      O     8.31494349     6.40180456    54.53212685    F
      2     Pt     8.31521701     4.80239129    53.39436432    F
      3     Pt     5.54298791     0.00160634    53.39638802    F
      4     Pt     6.92910246     2.40199881    53.39537617    F
      5     Pt    11.08707542     4.80244579    53.39364887    F
      6     Pt     8.31484631     0.00166084    53.39567256    F
      7     Pt     9.70096075     2.40178493    53.39578674    F
      8     Pt     5.54335872     4.80260517    53.39395376    F
      9     Pt     2.77112961     0.00182023    53.39597745    F
     10     Pt     4.15724417     2.40221270    53.39496561    F
     11     Pt     9.70154310     5.60130327    51.13095421    F
     12     Pt     6.92931399     0.80051832    51.13297791    F
     13     Pt     8.31542855     3.20091079    51.13196606    F
     14     Pt     4.15782651     5.60173104    51.13013308    F
     15     Pt     1.38559741     0.80094610    51.13215677    F
     16     Pt     2.77171196     3.20133856    51.13114493    F
     17     Pt     6.92968481     5.60151715    51.13054365    F
     18     Pt     4.15745570     0.80073221    51.13256734    F
     19     Pt     5.54357025     3.20112468    51.13155549    F
     20     Pt     6.92989635     4.00003666    48.86813538    F
     21     Pt     8.31601090     6.40042913    48.86712354    F
     22     Pt     5.54378178     1.59964418    48.86914723    F
     23     Pt     9.70175463     3.99982278    48.86854595    F
     24     Pt    11.08786918     6.40021524    48.86753410    F
     25     Pt     8.31564008     1.59943030    48.86955780    F
     26     Pt     4.15803804     4.00025055    48.86772482    F
     27     Pt     5.54415260     6.40064301    48.86671297    F
     28     Pt     2.77192349     1.59985807    48.86873666    F
     29     Pt     1.38639118     2.39871555    46.60604201    F
     30     Pt     5.54436413     4.79916253    46.60431471    F
     31     Pt     6.93024578     7.19969007    46.60553293    F
     32     Pt     4.15824958     2.39877005    46.60532655    F
     33     Pt     8.31622243     4.79894864    46.60472527    F
     34     Pt     9.70210408     7.19947619    46.60594350    F
     35     Pt     6.93010788     2.39855616    46.60573712    F
     36     Pt     2.77250585     4.79937641    46.60390414    F
     37     Pt     4.15838749     7.19990396    46.60512236    F

Box (angstrom)
      1     8.31557575     0.00000000     0.00000000
      2     4.15778787     7.20149984     0.00000000
      3     0.00000000     0.00000000   100.00000000

Inverse Box (angstrom^-1)
      1     0.12025626    -0.00000000     0.00000000
      2    -0.06942998     0.13885996    -0.00000000
      3    -0.00000000    -0.00000000     0.01000000

Total System Charge             0.00000

 Mapping:
           2           1
           3           2
           4           3
           5           4
           6           5
           7           6
           8           7
           9           8
          10           9
          11          10
          12          11
          13          12
          14          13
          15          14
          16          15
          17          16
          18          17
          19          18
          20          19
          21          20
          22          21
          23          22
          24          23
          25          24
          26          25
          27          26
          28          27
          29          28
          30          29
          31          30
          32          31
          33          32
          34          33
          35          34
          36          35
          37          36
 neighborList:   6.6140414361901954     
    1-->    2    3    5    8    9   10 
    2-->    1    3    4    5    7    8    9   11   13   17 
    3-->    1    2    4    5    6    9   10   11   12   18 
    4-->    2    3    6    7    8   10   12   13   19 
    5-->    1    2    3    6    7    8   10   11   14   16 
    6-->    3    4    5    7    8    9   12   14   15 
    7-->    2    4    5    6    9   10   13   15   16 
    8-->    1    2    4    5    6    9   10   14   17   19 
    9-->    1    2    3    6    7    8   10   15   17   18 
   10-->    1    3    4    5    7    8    9   16   18   19 
   11-->    2    3    5   12   13   14   16   17   18   21   23   24 
   12-->    3    4    6   11   13   14   15   18   19   22   24   25 
   13-->    2    4    7   11   12   15   16   17   19   20   23   25 
   14-->    5    6    8   11   12   15   16   17   19   24   26   27 
   15-->    6    7    9   12   13   14   16   17   18   25   27   28 
   16-->    5    7   10   11   13   14   15   18   19   23   26   28 
   17-->    2    8    9   11   13   14   15   18   19   20   21   27 
   18-->    3    9   10   11   12   15   16   17   19   21   22   28 
   19-->    4    8   10   12   13   14   16   17   18   20   22   26 
   20-->   13   17   19   21   22   23   25   26   27   30   33   35 
   21-->   11   17   18   20   22   23   24   27   28   31   33   34 
   22-->   12   18   19   20   21   24   25   26   28   32   34   35 
   23-->   11   13   16   20   21   24   25   26   28   29   33   36 
   24-->   11   12   14   21   22   23   25   26   27   34   36   37 
   25-->   12   13   15   20   22   23   24   27   28   29   35   37 
   26-->   14   16   19   20   22   23   24   27   28   30   32   36 
   27-->   14   15   17   20   21   24   25   26   28   30   31   37 
   28-->   15   16   18   21   22   23   25   26   27   29   31   32 
   29-->   23   25   28   31   32   33   35   36   37 
   30-->   20   26   27   31   32   33   35   36   37 
   31-->   21   27   28   29   30   32   33   34   37 
   32-->   22   26   28   29   30   31   34   35   36 
   33-->   20   21   23   29   30   31   34   35   36 
   34-->   21   22   24   31   32   33   35   36   37 
   35-->   20   22   25   29   30   32   33   34   37 
   36-->   23   24   26   29   30   32   33   34   37 
   37-->   24   25   27   29   30   31   34   35   36 
 stateEON%isTS =  F

------------
EON Geometry
------------
Atoms
  Index Symbol   x (angstrom)   y (angstrom)   z (angstrom)  fix
      1     Pt     8.31521714     4.80239136    53.39436432    T
      2     Pt     5.54298786     0.00160612    53.39638802    T
      3     Pt     6.92910250     2.40199874    53.39537617    T
      4     Pt    11.08707571     4.80244586    53.39364887    T
      5     Pt     8.31484643     0.00166062    53.39567256    T
      6     Pt     9.70096096     2.40178486    53.39578674    T
      7     Pt     5.54335868     4.80260524    53.39395376    T
      8     Pt     2.77112940     0.00182001    53.39597745    T
      9     Pt     4.15724404     2.40221263    53.39496561    T
     10     Pt     9.70154331     5.60130339    51.13095421    T
     11     Pt     6.92931403     0.80051815    51.13297791    T
     12     Pt     8.31542867     3.20091077    51.13196606    T
     13     Pt     4.15782639     5.60173116    51.13013308    T
     14     Pt     1.38559711     0.80094593    51.13215677    T
     15     Pt     2.77171175     3.20133854    51.13114493    T
     16     Pt     6.92968485     5.60151727    51.13054365    T
     17     Pt     4.15745557     0.80073204    51.13256734    T
     18     Pt     5.54357021     3.20112466    51.13155549    T
     19     Pt     6.92989639     4.00003668    48.86813538    T
     20     Pt     8.31601103     6.40042930    48.86712354    T
     21     Pt     5.54378174     1.59964406    48.86914723    T
     22     Pt     9.70175484     3.99982280    48.86854595    T
     23     Pt    11.08786948     6.40021541    48.86753410    T
     24     Pt     8.31564020     1.59943018    48.86955780    T
     25     Pt     4.15803792     4.00025057    48.86772482    T
     26     Pt     5.54415256     6.40064318    48.86671297    T
     27     Pt     2.77192328     1.59985795    48.86873666    T
     28     Pt     1.38639089     2.39871548    46.60604201    T
     29     Pt     5.54436409     4.79916260    46.60431471    T
     30     Pt     6.93024583     7.19969029    46.60553293    T
     31     Pt     4.15824945     2.39876998    46.60532655    T
     32     Pt     8.31622256     4.79894871    46.60472527    T
     33     Pt     9.70210429     7.19947641    46.60594350    T
     34     Pt     6.93010792     2.39855609    46.60573712    T
     35     Pt     2.77250564     4.79937648    46.60390414    T
     36     Pt     4.15838737     7.19990418    46.60512236    T

Box (angstrom)
      1     8.31557575     0.00000000     0.00000000
      2     4.15778787     7.20149984     0.00000000
      3     0.00000000     0.00000000   100.00000000

Inverse Box (angstrom^-1)
      1     0.12025626    -0.00000000     0.00000000
      2    -0.06942998     0.13885996    -0.00000000
      3    -0.00000000    -0.00000000     0.01000000

Total System Charge             0.00000


------------
EON Geometry
------------
Atoms
  Index Symbol   x (angstrom)   y (angstrom)   z (angstrom)  fix
      1      O    11.08744407     6.40142391    54.53178800    F
      2     Pt     8.31521689     4.80239121    53.39436432    F
      3     Pt     5.54298795     0.00160657    53.39638802    F
      4     Pt     6.92910242     2.40199889    53.39537617    F
      5     Pt    11.08707512     4.80244571    53.39364887    F
      6     Pt     8.31484619     0.00166107    53.39567256    F
      7     Pt     9.70096055     2.40178501    53.39578674    F
      8     Pt     5.54335876     4.80260509    53.39395376    F
      9     Pt     2.77112983     0.00182046    53.39597745    F
     10     Pt     4.15724429     2.40221278    53.39496561    F
     11     Pt     9.70154289     5.60130314    51.13095421    F
     12     Pt     6.92931395     0.80051850    51.13297791    F
     13     Pt     8.31542842     3.20091082    51.13196606    F
     14     Pt     4.15782663     5.60173091    51.13013308    F
     15     Pt     1.38559770     0.80094628    51.13215677    F
     16     Pt     2.77171217     3.20133859    51.13114493    F
     17     Pt     6.92968476     5.60151702    51.13054365    F
     18     Pt     4.15745583     0.80073239    51.13256734    F
     19     Pt     5.54357029     3.20112471    51.13155549    F
     20     Pt     6.92989631     4.00003663    48.86813538    F
     21     Pt     8.31601077     6.40042895    48.86712354    F
     22     Pt     5.54378183     1.59964431    48.86914723    F
     23     Pt     9.70175442     3.99982275    48.86854595    F
     24     Pt    11.08786889     6.40021506    48.86753410    F
     25     Pt     8.31563996     1.59943043    48.86955780    F
     26     Pt     4.15803817     4.00025052    48.86772482    F
     27     Pt     5.54415264     6.40064283    48.86671297    F
     28     Pt     2.77192370     1.59985820    48.86873666    F
     29     Pt     1.38639148     2.39871563    46.60604201    F
     30     Pt     5.54436417     4.79916245    46.60431471    F
     31     Pt     6.93024574     7.19968984    46.60553293    F
     32     Pt     4.15824970     2.39877013    46.60532655    F
     33     Pt     8.31622231     4.79894856    46.60472527    F
     34     Pt     9.70210386     7.19947596    46.60594350    F
     35     Pt     6.93010784     2.39855624    46.60573712    F
     36     Pt     2.77250605     4.79937633    46.60390414    F
     37     Pt     4.15838761     7.19990373    46.60512236    F

Box (angstrom)
      1     8.31557575     0.00000000     0.00000000
      2     4.15778787     7.20149984     0.00000000
      3     0.00000000     0.00000000   100.00000000

Inverse Box (angstrom^-1)
      1     0.12025626    -0.00000000     0.00000000
      2    -0.06942998     0.13885996    -0.00000000
      3    -0.00000000    -0.00000000     0.01000000

Total System Charge             0.00000

 Mapping:
           2           1
           3           2
           4           3
           5           4
           6           5
           7           6
           8           7
           9           8
          10           9
          11          10
          12          11
          13          12
          14          13
          15          14
          16          15
          17          16
          18          17
          19          18
          20          19
          21          20
          22          21
          23          22
          24          23
          25          24
          26          25
          27          26
          28          27
          29          28
          30          29
          31          30
          32          31
          33          32
          34          33
          35          34
          36          35
          37          36
 neighborList:   6.6140414361901954     
    1-->    2    3    4    5    6    8 
    2-->    1    3    4    5    7    8    9   11   13   17 
    3-->    1    2    4    5    6    9   10   11   12   18 
    4-->    1    2    3    6    7    8   10   12   13   19 
    5-->    1    2    3    6    7    8   10   11   14   16 
    6-->    1    3    4    5    7    8    9   12   14   15 
    7-->    2    4    5    6    9   10   13   15   16 
    8-->    1    2    4    5    6    9   10   14   17   19 
    9-->    2    3    6    7    8   10   15   17   18 
   10-->    3    4    5    7    8    9   16   18   19 
   11-->    2    3    5   12   13   14   16   17   18   21   23   24 
   12-->    3    4    6   11   13   14   15   18   19   22   24   25 
   13-->    2    4    7   11   12   15   16   17   19   20   23   25 
   14-->    5    6    8   11   12   15   16   17   19   24   26   27 
   15-->    6    7    9   12   13   14   16   17   18   25   27   28 
   16-->    5    7   10   11   13   14   15   18   19   23   26   28 
   17-->    2    8    9   11   13   14   15   18   19   20   21   27 
   18-->    3    9   10   11   12   15   16   17   19   21   22   28 
   19-->    4    8   10   12   13   14   16   17   18   20   22   26 
   20-->   13   17   19   21   22   23   25   26   27   30   33   35 
   21-->   11   17   18   20   22   23   24   27   28   31   33   34 
   22-->   12   18   19   20   21   24   25   26   28   32   34   35 
   23-->   11   13   16   20   21   24   25   26   28   29   33   36 
   24-->   11   12   14   21   22   23   25   26   27   34   36   37 
   25-->   12   13   15   20   22   23   24   27   28   29   35   37 
   26-->   14   16   19   20   22   23   24   27   28   30   32   36 
   27-->   14   15   17   20   21   24   25   26   28   30   31   37 
   28-->   15   16   18   21   22   23   25   26   27   29   31   32 
   29-->   23   25   28   31   32   33   35   36   37 
   30-->   20   26   27   31   32   33   35   36   37 
   31-->   21   27   28   29   30   32   33   34   37 
   32-->   22   26   28   29   30   31   34   35   36 
   33-->   20   21   23   29   30   31   34   35   36 
   34-->   21   22   24   31   32   33   35   36   37 
   35-->   20   22   25   29   30   32   33   34   37 
   36-->   23   24   26   29   30   32   33   34   37 
   37-->   24   25   27   29   30   31   34   35   36 
 stateEON%isTS =  F

------------
EON Geometry
------------
Atoms
  Index Symbol   x (angstrom)   y (angstrom)   z (angstrom)  fix
      1     Pt     8.31521714     4.80239136    53.39436432    T
      2     Pt     5.54298786     0.00160612    53.39638802    T
      3     Pt     6.92910250     2.40199874    53.39537617    T
      4     Pt    11.08707571     4.80244586    53.39364887    T
      5     Pt     8.31484643     0.00166062    53.39567256    T
      6     Pt     9.70096096     2.40178486    53.39578674    T
      7     Pt     5.54335868     4.80260524    53.39395376    T
      8     Pt     2.77112940     0.00182001    53.39597745    T
      9     Pt     4.15724404     2.40221263    53.39496561    T
     10     Pt     9.70154331     5.60130339    51.13095421    T
     11     Pt     6.92931403     0.80051815    51.13297791    T
     12     Pt     8.31542867     3.20091077    51.13196606    T
     13     Pt     4.15782639     5.60173116    51.13013308    T
     14     Pt     1.38559711     0.80094593    51.13215677    T
     15     Pt     2.77171175     3.20133854    51.13114493    T
     16     Pt     6.92968485     5.60151727    51.13054365    T
     17     Pt     4.15745557     0.80073204    51.13256734    T
     18     Pt     5.54357021     3.20112466    51.13155549    T
     19     Pt     6.92989639     4.00003668    48.86813538    T
     20     Pt     8.31601103     6.40042930    48.86712354    T
     21     Pt     5.54378174     1.59964406    48.86914723    T
     22     Pt     9.70175484     3.99982280    48.86854595    T
     23     Pt    11.08786948     6.40021541    48.86753410    T
     24     Pt     8.31564020     1.59943018    48.86955780    T
     25     Pt     4.15803792     4.00025057    48.86772482    T
     26     Pt     5.54415256     6.40064318    48.86671297    T
     27     Pt     2.77192328     1.59985795    48.86873666    T
     28     Pt     1.38639089     2.39871548    46.60604201    T
     29     Pt     5.54436409     4.79916260    46.60431471    T
     30     Pt     6.93024583     7.19969029    46.60553293    T
     31     Pt     4.15824945     2.39876998    46.60532655    T
     32     Pt     8.31622256     4.79894871    46.60472527    T
     33     Pt     9.70210429     7.19947641    46.60594350    T
     34     Pt     6.93010792     2.39855609    46.60573712    T
     35     Pt     2.77250564     4.79937648    46.60390414    T
     36     Pt     4.15838737     7.19990418    46.60512236    T

Box (angstrom)
      1     8.31557575     0.00000000     0.00000000
      2     4.15778787     7.20149984     0.00000000
      3     0.00000000     0.00000000   100.00000000

Inverse Box (angstrom^-1)
      1     0.12025626    -0.00000000     0.00000000
      2    -0.06942998     0.13885996    -0.00000000
      3    -0.00000000    -0.00000000     0.01000000

Total System Charge             0.00000


------------
EON Geometry
------------
Atoms
  Index Symbol   x (angstrom)   y (angstrom)   z (angstrom)  fix
      1      O     5.54295134     1.60255412    54.53213319    F
      2     Pt     8.31521714     4.80239136    53.39436432    F
      3     Pt     5.54298786     0.00160612    53.39638802    F
      4     Pt     6.92910250     2.40199874    53.39537617    F
      5     Pt    11.08707571     4.80244586    53.39364887    F
      6     Pt     8.31484643     0.00166062    53.39567256    F
      7     Pt     9.70096096     2.40178486    53.39578674    F
      8     Pt     5.54335868     4.80260524    53.39395376    F
      9     Pt     2.77112940     0.00182001    53.39597745    F
     10     Pt     4.15724404     2.40221263    53.39496561    F
     11     Pt     9.70154331     5.60130339    51.13095421    F
     12     Pt     6.92931403     0.80051815    51.13297791    F
     13     Pt     8.31542867     3.20091077    51.13196606    F
     14     Pt     4.15782639     5.60173116    51.13013308    F
     15     Pt     1.38559711     0.80094593    51.13215677    F
     16     Pt     2.77171175     3.20133854    51.13114493    F
     17     Pt     6.92968485     5.60151727    51.13054365    F
     18     Pt     4.15745557     0.80073204    51.13256734    F
     19     Pt     5.54357021     3.20112466    51.13155549    F
     20     Pt     6.92989639     4.00003668    48.86813538    F
     21     Pt     8.31601103     6.40042930    48.86712354    F
     22     Pt     5.54378174     1.59964406    48.86914723    F
     23     Pt     9.70175484     3.99982280    48.86854595    F
     24     Pt    11.08786948     6.40021541    48.86753410    F
     25     Pt     8.31564020     1.59943018    48.86955780    F
     26     Pt     4.15803792     4.00025057    48.86772482    F
     27     Pt     5.54415256     6.40064318    48.86671297    F
     28     Pt     2.77192328     1.59985795    48.86873666    F
     29     Pt     1.38639089     2.39871548    46.60604201    F
     30     Pt     5.54436409     4.79916260    46.60431471    F
     31     Pt     6.93024583     7.19969029    46.60553293    F
     32     Pt     4.15824945     2.39876998    46.60532655    F
     33     Pt     8.31622256     4.79894871    46.60472527    F
     34     Pt     9.70210429     7.19947641    46.60594350    F
     35     Pt     6.93010792     2.39855609    46.60573712    F
     36     Pt     2.77250564     4.79937648    46.60390414    F
     37     Pt     4.15838737     7.19990418    46.60512236    F

Box (angstrom)
      1     8.31557575     0.00000000     0.00000000
      2     4.15778787     7.20149984     0.00000000
      3     0.00000000     0.00000000   100.00000000

Inverse Box (angstrom^-1)
      1     0.12025626    -0.00000000     0.00000000
      2    -0.06942998     0.13885996    -0.00000000
      3    -0.00000000    -0.00000000     0.01000000

Total System Charge             0.00000

 Mapping:
           2           1
           3           2
           4           3
           5           4
           6           5
           7           6
           8           7
           9           8
          10           9
          11          10
          12          11
          13          12
          14          13
          15          14
          16          15
          17          16
          18          17
          19          18
          20          19
          21          20
          22          21
          23          22
          24          23
          25          24
          26          25
          27          26
          28          27
          29          28
          30          29
          31          30
          32          31
          33          32
          34          33
          35          34
          36          35
          37          36
 neighborList:   6.6140414361901954     
    1-->    3    4    6    8    9   10 
    2-->    3    4    5    7    8    9   11   13   17 
    3-->    1    2    4    5    6    9   10   11   12   18 
    4-->    1    2    3    6    7    8   10   12   13   19 
    5-->    2    3    6    7    8   10   11   14   16 
    6-->    1    3    4    5    7    8    9   12   14   15 
    7-->    2    4    5    6    9   10   13   15   16 
    8-->    1    2    4    5    6    9   10   14   17   19 
    9-->    1    2    3    6    7    8   10   15   17   18 
   10-->    1    3    4    5    7    8    9   16   18   19 
   11-->    2    3    5   12   13   14   16   17   18   21   23   24 
   12-->    3    4    6   11   13   14   15   18   19   22   24   25 
   13-->    2    4    7   11   12   15   16   17   19   20   23   25 
   14-->    5    6    8   11   12   15   16   17   19   24   26   27 
   15-->    6    7    9   12   13   14   16   17   18   25   27   28 
   16-->    5    7   10   11   13   14   15   18   19   23   26   28 
   17-->    2    8    9   11   13   14   15   18   19   20   21   27 
   18-->    3    9   10   11   12   15   16   17   19   21   22   28 
   19-->    4    8   10   12   13   14   16   17   18   20   22   26 
   20-->   13   17   19   21   22   23   25   26   27   30   33   35 
   21-->   11   17   18   20   22   23   24   27   28   31   33   34 
   22-->   12   18   19   20   21   24   25   26   28   32   34   35 
   23-->   11   13   16   20   21   24   25   26   28   29   33   36 
   24-->   11   12   14   21   22   23   25   26   27   34   36   37 
   25-->   12   13   15   20   22   23   24   27   28   29   35   37 
   26-->   14   16   19   20   22   23   24   27   28   30   32   36 
   27-->   14   15   17   20   21   24   25   26   28   30   31   37 
   28-->   15   16   18   21   22   23   25   26   27   29   31   32 
   29-->   23   25   28   31   32   33   35   36   37 
   30-->   20   26   27   31   32   33   35   36   37 
   31-->   21   27   28   29   30   32   33   34   37 
   32-->   22   26   28   29   30   31   34   35   36 
   33-->   20   21   23   29   30   31   34   35   36 
   34-->   21   22   24   31   32   33   35   36   37 
   35-->   20   22   25   29   30   32   33   34   37 
   36-->   23   24   26   29   30   32   33   34   37 
   37-->   24   25   27   29   30   31   34   35   36 
 stateEON%isTS =  F

------------
EON Geometry
------------
Atoms
  Index Symbol   x (angstrom)   y (angstrom)   z (angstrom)  fix
      1     Pt     8.31521714     4.80239136    53.39436432    T
      2     Pt     5.54298786     0.00160612    53.39638802    T
      3     Pt     6.92910250     2.40199874    53.39537617    T
      4     Pt    11.08707571     4.80244586    53.39364887    T
      5     Pt     8.31484643     0.00166062    53.39567256    T
      6     Pt     9.70096096     2.40178486    53.39578674    T
      7     Pt     5.54335868     4.80260524    53.39395376    T
      8     Pt     2.77112940     0.00182001    53.39597745    T
      9     Pt     4.15724404     2.40221263    53.39496561    T
     10     Pt     9.70154331     5.60130339    51.13095421    T
     11     Pt     6.92931403     0.80051815    51.13297791    T
     12     Pt     8.31542867     3.20091077    51.13196606    T
     13     Pt     4.15782639     5.60173116    51.13013308    T
     14     Pt     1.38559711     0.80094593    51.13215677    T
     15     Pt     2.77171175     3.20133854    51.13114493    T
     16     Pt     6.92968485     5.60151727    51.13054365    T
     17     Pt     4.15745557     0.80073204    51.13256734    T
     18     Pt     5.54357021     3.20112466    51.13155549    T
     19     Pt     6.92989639     4.00003668    48.86813538    T
     20     Pt     8.31601103     6.40042930    48.86712354    T
     21     Pt     5.54378174     1.59964406    48.86914723    T
     22     Pt     9.70175484     3.99982280    48.86854595    T
     23     Pt    11.08786948     6.40021541    48.86753410    T
     24     Pt     8.31564020     1.59943018    48.86955780    T
     25     Pt     4.15803792     4.00025057    48.86772482    T
     26     Pt     5.54415256     6.40064318    48.86671297    T
     27     Pt     2.77192328     1.59985795    48.86873666    T
     28     Pt     1.38639089     2.39871548    46.60604201    T
     29     Pt     5.54436409     4.79916260    46.60431471    T
     30     Pt     6.93024583     7.19969029    46.60553293    T
     31     Pt     4.15824945     2.39876998    46.60532655    T
     32     Pt     8.31622256     4.79894871    46.60472527    T
     33     Pt     9.70210429     7.19947641    46.60594350    T
     34     Pt     6.93010792     2.39855609    46.60573712    T
     35     Pt     2.77250564     4.79937648    46.60390414    T
     36     Pt     4.15838737     7.19990418    46.60512236    T

Box (angstrom)
      1     8.31557575     0.00000000     0.00000000
      2     4.15778787     7.20149984     0.00000000
      3     0.00000000     0.00000000   100.00000000

Inverse Box (angstrom^-1)
      1     0.12025626    -0.00000000     0.00000000
      2    -0.06942998     0.13885996    -0.00000000
      3    -0.00000000    -0.00000000     0.01000000

Total System Charge             0.00000


------------
EON Geometry
------------
Atoms
  Index Symbol   x (angstrom)   y (angstrom)   z (angstrom)  fix
      1      O     2.77149140     1.60205935    54.53211899    F
      2     Pt     8.31521701     4.80239129    53.39436432    F
      3     Pt     5.54298791     0.00160634    53.39638802    F
      4     Pt     6.92910246     2.40199881    53.39537617    F
      5     Pt    11.08707542     4.80244579    53.39364887    F
      6     Pt     8.31484631     0.00166084    53.39567256    F
      7     Pt     9.70096075     2.40178493    53.39578674    F
      8     Pt     5.54335872     4.80260517    53.39395376    F
      9     Pt     2.77112961     0.00182023    53.39597745    F
     10     Pt     4.15724417     2.40221270    53.39496561    F
     11     Pt     9.70154310     5.60130327    51.13095421    F
     12     Pt     6.92931399     0.80051832    51.13297791    F
     13     Pt     8.31542855     3.20091079    51.13196606    F
     14     Pt     4.15782651     5.60173104    51.13013308    F
     15     Pt     1.38559741     0.80094610    51.13215677    F
     16     Pt     2.77171196     3.20133856    51.13114493    F
     17     Pt     6.92968481     5.60151715    51.13054365    F
     18     Pt     4.15745570     0.80073221    51.13256734    F
     19     Pt     5.54357025     3.20112468    51.13155549    F
     20     Pt     6.92989635     4.00003666    48.86813538    F
     21     Pt     8.31601090     6.40042913    48.86712354    F
     22     Pt     5.54378178     1.59964418    48.86914723    F
     23     Pt     9.70175463     3.99982278    48.86854595    F
     24     Pt    11.08786918     6.40021524    48.86753410    F
     25     Pt     8.31564008     1.59943030    48.86955780    F
     26     Pt     4.15803804     4.00025055    48.86772482    F
     27     Pt     5.54415260     6.40064301    48.86671297    F
     28     Pt     2.77192349     1.59985807    48.86873666    F
     29     Pt     1.38639118     2.39871555    46.60604201    F
     30     Pt     5.54436413     4.79916253    46.60431471    F
     31     Pt     6.93024578     7.19969007    46.60553293    F
     32     Pt     4.15824958     2.39877005    46.60532655    F
     33     Pt     8.31622243     4.79894864    46.60472527    F
     34     Pt     9.70210408     7.19947619    46.60594350    F
     35     Pt     6.93010788     2.39855616    46.60573712    F
     36     Pt     2.77250585     4.79937641    46.60390414    F
     37     Pt     4.15838749     7.19990396    46.60512236    F

Box (angstrom)
      1     8.31557575     0.00000000     0.00000000
      2     4.15778787     7.20149984     0.00000000
      3     0.00000000     0.00000000   100.00000000

Inverse Box (angstrom^-1)
      1     0.12025626    -0.00000000     0.00000000
      2    -0.06942998     0.13885996    -0.00000000
      3    -0.00000000    -0.00000000     0.01000000

Total System Charge             0.00000

 Mapping:
           2           1
           3           2
           4           3
           5           4
           6           5
           7           6
           8           7
           9           8
          10           9
          11          10
          12          11
          13          12
          14          13
          15          14
          16          15
          17          16
          18          17
          19          18
          20          19
          21          20
          22          21
          23          22
          24          23
          25          24
          26          25
          27          26
          28          27
          29          28
          30          29
          31          30
          32          31
          33          32
          34          33
          35          34
          36          35
          37          36
 neighborList:   6.6140414361901954     
    1-->    3    5    6    7    9   10 
    2-->    3    4    5    7    8    9   11   13   17 
    3-->    1    2    4    5    6    9   10   11   12   18 
    4-->    2    3    6    7    8   10   12   13   19 
    5-->    1    2    3    6    7    8   10   11   14   16 
    6-->    1    3    4    5    7    8    9   12   14   15 
    7-->    1    2    4    5    6    9   10   13   15   16 
    8-->    2    4    5    6    9   10   14   17   19 
    9-->    1    2    3    6    7    8   10   15   17   18 
   10-->    1    3    4    5    7    8    9   16   18   19 
   11-->    2    3    5   12   13   14   16   17   18   21   23   24 
   12-->    3    4    6   11   13   14   15   18   19   22   24   25 
   13-->    2    4    7   11   12   15   16   17   19   20   23   25 
   14-->    5    6    8   11   12   15   16   17   19   24   26   27 
   15-->    6    7    9   12   13   14   16   17   18   25   27   28 
   16-->    5    7   10   11   13   14   15   18   19   23   26   28 
   17-->    2    8    9   11   13   14   15   18   19   20   21   27 
   18-->    3    9   10   11   12   15   16   17   19   21   22   28 
   19-->    4    8   10   12   13   14   16   17   18   20   22   26 
   20-->   13   17   19   21   22   23   25   26   27   30   33   35 
   21-->   11   17   18   20   22   23   24   27   28   31   33   34 
   22-->   12   18   19   20   21   24   25   26   28   32   34   35 
   23-->   11   13   16   20   21   24   25   26   28   29   33   36 
   24-->   11   12   14   21   22   23   25   26   27   34   36   37 
   25-->   12   13   15   20   22   23   24   27   28   29   35   37 
   26-->   14   16   19   20   22   23   24   27   28   30   32   36 
   27-->   14   15   17   20   21   24   25   26   28   30   31   37 
   28-->   15   16   18   21   22   23   25   26   27   29   31   32 
   29-->   23   25   28   31   32   33   35   36   37 
   30-->   20   26   27   31   32   33   35   36   37 
   31-->   21   27   28   29   30   32   33   34   37 
   32-->   22   26   28   29   30   31   34   35   36 
   33-->   20   21   23   29   30   31   34   35   36 
   34-->   21   22   24   31   32   33   35   36   37 
   35-->   20   22   25   29   30   32   33   34   37 
   36-->   23   24   26   29   30   32   33   34   37 
   37-->   24   25   27   29   30   31   34   35   36 
 stateEON%isTS =  F

------------
EON Geometry
------------
Atoms
  Index Symbol   x (angstrom)   y (angstrom)   z (angstrom)  fix
      1     Pt     8.31521714     4.80239136    53.39436432    T
      2     Pt     5.54298786     0.00160612    53.39638802    T
      3     Pt     6.92910250     2.40199874    53.39537617    T
      4     Pt    11.08707571     4.80244586    53.39364887    T
      5     Pt     8.31484643     0.00166062    53.39567256    T
      6     Pt     9.70096096     2.40178486    53.39578674    T
      7     Pt     5.54335868     4.80260524    53.39395376    T
      8     Pt     2.77112940     0.00182001    53.39597745    T
      9     Pt     4.15724404     2.40221263    53.39496561    T
     10     Pt     9.70154331     5.60130339    51.13095421    T
     11     Pt     6.92931403     0.80051815    51.13297791    T
     12     Pt     8.31542867     3.20091077    51.13196606    T
     13     Pt     4.15782639     5.60173116    51.13013308    T
     14     Pt     1.38559711     0.80094593    51.13215677    T
     15     Pt     2.77171175     3.20133854    51.13114493    T
     16     Pt     6.92968485     5.60151727    51.13054365    T
     17     Pt     4.15745557     0.80073204    51.13256734    T
     18     Pt     5.54357021     3.20112466    51.13155549    T
     19     Pt     6.92989639     4.00003668    48.86813538    T
     20     Pt     8.31601103     6.40042930    48.86712354    T
     21     Pt     5.54378174     1.59964406    48.86914723    T
     22     Pt     9.70175484     3.99982280    48.86854595    T
     23     Pt    11.08786948     6.40021541    48.86753410    T
     24     Pt     8.31564020     1.59943018    48.86955780    T
     25     Pt     4.15803792     4.00025057    48.86772482    T
     26     Pt     5.54415256     6.40064318    48.86671297    T
     27     Pt     2.77192328     1.59985795    48.86873666    T
     28     Pt     1.38639089     2.39871548    46.60604201    T
     29     Pt     5.54436409     4.79916260    46.60431471    T
     30     Pt     6.93024583     7.19969029    46.60553293    T
     31     Pt     4.15824945     2.39876998    46.60532655    T
     32     Pt     8.31622256     4.79894871    46.60472527    T
     33     Pt     9.70210429     7.19947641    46.60594350    T
     34     Pt     6.93010792     2.39855609    46.60573712    T
     35     Pt     2.77250564     4.79937648    46.60390414    T
     36     Pt     4.15838737     7.19990418    46.60512236    T

Box (angstrom)
      1     8.31557575     0.00000000     0.00000000
      2     4.15778787     7.20149984     0.00000000
      3     0.00000000     0.00000000   100.00000000

Inverse Box (angstrom^-1)
      1     0.12025626    -0.00000000     0.00000000
      2    -0.06942998     0.13885996    -0.00000000
      3    -0.00000000    -0.00000000     0.01000000

Total System Charge             0.00000


------------
EON Geometry
------------
Atoms
  Index Symbol   x (angstrom)   y (angstrom)   z (angstrom)  fix
      1      O     8.31489176     1.60174352    54.53216728    F
      2     Pt     8.31521701     4.80239129    53.39436432    F
      3     Pt     5.54298791     0.00160634    53.39638802    F
      4     Pt     6.92910246     2.40199881    53.39537617    F
      5     Pt    11.08707542     4.80244579    53.39364887    F
      6     Pt     8.31484631     0.00166084    53.39567256    F
      7     Pt     9.70096075     2.40178493    53.39578674    F
      8     Pt     5.54335872     4.80260517    53.39395376    F
      9     Pt     2.77112961     0.00182023    53.39597745    F
     10     Pt     4.15724417     2.40221270    53.39496561    F
     11     Pt     9.70154310     5.60130327    51.13095421    F
     12     Pt     6.92931399     0.80051832    51.13297791    F
     13     Pt     8.31542855     3.20091079    51.13196606    F
     14     Pt     4.15782651     5.60173104    51.13013308    F
     15     Pt     1.38559741     0.80094610    51.13215677    F
     16     Pt     2.77171196     3.20133856    51.13114493    F
     17     Pt     6.92968481     5.60151715    51.13054365    F
     18     Pt     4.15745570     0.80073221    51.13256734    F
     19     Pt     5.54357025     3.20112468    51.13155549    F
     20     Pt     6.92989635     4.00003666    48.86813538    F
     21     Pt     8.31601090     6.40042913    48.86712354    F
     22     Pt     5.54378178     1.59964418    48.86914723    F
     23     Pt     9.70175463     3.99982278    48.86854595    F
     24     Pt    11.08786918     6.40021524    48.86753410    F
     25     Pt     8.31564008     1.59943030    48.86955780    F
     26     Pt     4.15803804     4.00025055    48.86772482    F
     27     Pt     5.54415260     6.40064301    48.86671297    F
     28     Pt     2.77192349     1.59985807    48.86873666    F
     29     Pt     1.38639118     2.39871555    46.60604201    F
     30     Pt     5.54436413     4.79916253    46.60431471    F
     31     Pt     6.93024578     7.19969007    46.60553293    F
     32     Pt     4.15824958     2.39877005    46.60532655    F
     33     Pt     8.31622243     4.79894864    46.60472527    F
     34     Pt     9.70210408     7.19947619    46.60594350    F
     35     Pt     6.93010788     2.39855616    46.60573712    F
     36     Pt     2.77250585     4.79937641    46.60390414    F
     37     Pt     4.15838749     7.19990396    46.60512236    F

Box (angstrom)
      1     8.31557575     0.00000000     0.00000000
      2     4.15778787     7.20149984     0.00000000
      3     0.00000000     0.00000000   100.00000000

Inverse Box (angstrom^-1)
      1     0.12025626    -0.00000000     0.00000000
      2    -0.06942998     0.13885996    -0.00000000
      3    -0.00000000    -0.00000000     0.01000000

Total System Charge             0.00000

 Mapping:
           2           1
           3           2
           4           3
           5           4
           6           5
           7           6
           8           7
           9           8
          10           9
          11          10
          12          11
          13          12
          14          13
          15          14
          16          15
          17          16
          18          17
          19          18
          20          19
          21          20
          22          21
          23          22
          24          23
          25          24
          26          25
          27          26
          28          27
          29          28
          30          29
          31          30
          32          31
          33          32
          34          33
          35          34
          36          35
          37          36
 neighborList:   6.6140414361901954     
    1-->    2    3    4    6    7    9 
    2-->    1    3    4    5    7    8    9   11   13   17 
    3-->    1    2    4    5    6    9   10   11   12   18 
    4-->    1    2    3    6    7    8   10   12   13   19 
    5-->    2    3    6    7    8   10   11   14   16 
    6-->    1    3    4    5    7    8    9   12   14   15 
    7-->    1    2    4    5    6    9   10   13   15   16 
    8-->    2    4    5    6    9   10   14   17   19 
    9-->    1    2    3    6    7    8   10   15   17   18 
   10-->    3    4    5    7    8    9   16   18   19 
   11-->    2    3    5   12   13   14   16   17   18   21   23   24 
   12-->    3    4    6   11   13   14   15   18   19   22   24   25 
   13-->    2    4    7   11   12   15   16   17   19   20   23   25 
   14-->    5    6    8   11   12   15   16   17   19   24   26   27 
   15-->    6    7    9   12   13   14   16   17   18   25   27   28 
   16-->    5    7   10   11   13   14   15   18   19   23   26   28 
   17-->    2    8    9   11   13   14   15   18   19   20   21   27 
   18-->    3    9   10   11   12   15   16   17   19   21   22   28 
   19-->    4    8   10   12   13   14   16   17   18   20   22   26 
   20-->   13   17   19   21   22   23   25   26   27   30   33   35 
   21-->   11   17   18   20   22   23   24   27   28   31   33   34 
   22-->   12   18   19   20   21   24   25   26   28   32   34   35 
   23-->   11   13   16   20   21   24   25   26   28   29   33   36 
   24-->   11   12   14   21   22   23   25   26   27   34   36   37 
   25-->   12   13   15   20   22   23   24   27   28   29   35   37 
   26-->   14   16   19   20   22   23   24   27   28   30   32   36 
   27-->   14   15   17   20   21   24   25   26   28   30   31   37 
   28-->   15   16   18   21   22   23   25   26   27   29   31   32 
   29-->   23   25   28   31   32   33   35   36   37 
   30-->   20   26   27   31   32   33   35   36   37 
   31-->   21   27   28   29   30   32   33   34   37 
   32-->   22   26   28   29   30   31   34   35   36 
   33-->   20   21   23   29   30   31   34   35   36 
   34-->   21   22   24   31   32   33   35   36   37 
   35-->   20   22   25   29   30   32   33   34   37 
   36-->   23   24   26   29   30   32   33   34   37 
   37-->   24   25   27   29   30   31   34   35   36 
 stateEON%isTS =  F

------------
EON Geometry
------------
Atoms
  Index Symbol   x (angstrom)   y (angstrom)   z (angstrom)  fix
      1     Pt     8.31521714     4.80239136    53.39436432    T
      2     Pt     5.54298786     0.00160612    53.39638802    T
      3     Pt     6.92910250     2.40199874    53.39537617    T
      4     Pt    11.08707571     4.80244586    53.39364887    T
      5     Pt     8.31484643     0.00166062    53.39567256    T
      6     Pt     9.70096096     2.40178486    53.39578674    T
      7     Pt     5.54335868     4.80260524    53.39395376    T
      8     Pt     2.77112940     0.00182001    53.39597745    T
      9     Pt     4.15724404     2.40221263    53.39496561    T
     10     Pt     9.70154331     5.60130339    51.13095421    T
     11     Pt     6.92931403     0.80051815    51.13297791    T
     12     Pt     8.31542867     3.20091077    51.13196606    T
     13     Pt     4.15782639     5.60173116    51.13013308    T
     14     Pt     1.38559711     0.80094593    51.13215677    T
     15     Pt     2.77171175     3.20133854    51.13114493    T
     16     Pt     6.92968485     5.60151727    51.13054365    T
     17     Pt     4.15745557     0.80073204    51.13256734    T
     18     Pt     5.54357021     3.20112466    51.13155549    T
     19     Pt     6.92989639     4.00003668    48.86813538    T
     20     Pt     8.31601103     6.40042930    48.86712354    T
     21     Pt     5.54378174     1.59964406    48.86914723    T
     22     Pt     9.70175484     3.99982280    48.86854595    T
     23     Pt    11.08786948     6.40021541    48.86753410    T
     24     Pt     8.31564020     1.59943018    48.86955780    T
     25     Pt     4.15803792     4.00025057    48.86772482    T
     26     Pt     5.54415256     6.40064318    48.86671297    T
     27     Pt     2.77192328     1.59985795    48.86873666    T
     28     Pt     1.38639089     2.39871548    46.60604201    T
     29     Pt     5.54436409     4.79916260    46.60431471    T
     30     Pt     6.93024583     7.19969029    46.60553293    T
     31     Pt     4.15824945     2.39876998    46.60532655    T
     32     Pt     8.31622256     4.79894871    46.60472527    T
     33     Pt     9.70210429     7.19947641    46.60594350    T
     34     Pt     6.93010792     2.39855609    46.60573712    T
     35     Pt     2.77250564     4.79937648    46.60390414    T
     36     Pt     4.15838737     7.19990418    46.60512236    T

Box (angstrom)
      1     8.31557575     0.00000000     0.00000000
      2     4.15778787     7.20149984     0.00000000
      3     0.00000000     0.00000000   100.00000000

Inverse Box (angstrom^-1)
      1     0.12025626    -0.00000000     0.00000000
      2    -0.06942998     0.13885996    -0.00000000
      3    -0.00000000    -0.00000000     0.01000000

Total System Charge             0.00000


------------
EON Geometry
------------
Atoms
  Index Symbol   x (angstrom)   y (angstrom)   z (angstrom)  fix
      1      O     9.70139132     4.00310067    54.53115120    F
      2     Pt     8.31521689     4.80239121    53.39436432    F
      3     Pt     5.54298795     0.00160657    53.39638802    F
      4     Pt     6.92910242     2.40199889    53.39537617    F
      5     Pt    11.08707512     4.80244571    53.39364887    F
      6     Pt     8.31484619     0.00166107    53.39567256    F
      7     Pt     9.70096055     2.40178501    53.39578674    F
      8     Pt     5.54335876     4.80260509    53.39395376    F
      9     Pt     2.77112983     0.00182046    53.39597745    F
     10     Pt     4.15724429     2.40221278    53.39496561    F
     11     Pt     9.70154289     5.60130314    51.13095421    F
     12     Pt     6.92931395     0.80051850    51.13297791    F
     13     Pt     8.31542842     3.20091082    51.13196606    F
     14     Pt     4.15782663     5.60173091    51.13013308    F
     15     Pt     1.38559770     0.80094628    51.13215677    F
     16     Pt     2.77171217     3.20133859    51.13114493    F
     17     Pt     6.92968476     5.60151702    51.13054365    F
     18     Pt     4.15745583     0.80073239    51.13256734    F
     19     Pt     5.54357029     3.20112471    51.13155549    F
     20     Pt     6.92989631     4.00003663    48.86813538    F
     21     Pt     8.31601077     6.40042895    48.86712354    F
     22     Pt     5.54378183     1.59964431    48.86914723    F
     23     Pt     9.70175442     3.99982275    48.86854595    F
     24     Pt    11.08786889     6.40021506    48.86753410    F
     25     Pt     8.31563996     1.59943043    48.86955780    F
     26     Pt     4.15803817     4.00025052    48.86772482    F
     27     Pt     5.54415264     6.40064283    48.86671297    F
     28     Pt     2.77192370     1.59985820    48.86873666    F
     29     Pt     1.38639148     2.39871563    46.60604201    F
     30     Pt     5.54436417     4.79916245    46.60431471    F
     31     Pt     6.93024574     7.19968984    46.60553293    F
     32     Pt     4.15824970     2.39877013    46.60532655    F
     33     Pt     8.31622231     4.79894856    46.60472527    F
     34     Pt     9.70210386     7.19947596    46.60594350    F
     35     Pt     6.93010784     2.39855624    46.60573712    F
     36     Pt     2.77250605     4.79937633    46.60390414    F
     37     Pt     4.15838761     7.19990373    46.60512236    F

Box (angstrom)
      1     8.31557575     0.00000000     0.00000000
      2     4.15778787     7.20149984     0.00000000
      3     0.00000000     0.00000000   100.00000000

Inverse Box (angstrom^-1)
      1     0.12025626    -0.00000000     0.00000000
      2    -0.06942998     0.13885996    -0.00000000
      3    -0.00000000    -0.00000000     0.01000000

Total System Charge             0.00000

 Mapping:
           2           1
           3           2
           4           3
           5           4
           6           5
           7           6
           8           7
           9           8
          10           9
          11          10
          12          11
          13          12
          14          13
          15          14
          16          15
          17          16
          18          17
          19          18
          20          19
          21          20
          22          21
          23          22
          24          23
          25          24
          26          25
          27          26
          28          27
          29          28
          30          29
          31          30
          32          31
          33          32
          34          33
          35          34
          36          35
          37          36
 neighborList:   6.6140414361901954     
    1-->    2    3    4    5    7   10 
    2-->    1    3    4    5    7    8    9   11   13   17 
    3-->    1    2    4    5    6    9   10   11   12   18 
    4-->    1    2    3    6    7    8   10   12   13   19 
    5-->    1    2    3    6    7    8   10   11   14   16 
    6-->    3    4    5    7    8    9   12   14   15 
    7-->    1    2    4    5    6    9   10   13   15   16 
    8-->    2    4    5    6    9   10   14   17   19 
    9-->    2    3    6    7    8   10   15   17   18 
   10-->    1    3    4    5    7    8    9   16   18   19 
   11-->    2    3    5   12   13   14   16   17   18   21   23   24 
   12-->    3    4    6   11   13   14   15   18   19   22   24   25 
   13-->    2    4    7   11   12   15   16   17   19   20   23   25 
   14-->    5    6    8   11   12   15   16   17   19   24   26   27 
   15-->    6    7    9   12   13   14   16   17   18   25   27   28 
   16-->    5    7   10   11   13   14   15   18   19   23   26   28 
   17-->    2    8    9   11   13   14   15   18   19   20   21   27 
   18-->    3    9   10   11   12   15   16   17   19   21   22   28 
   19-->    4    8   10   12   13   14   16   17   18   20   22   26 
   20-->   13   17   19   21   22   23   25   26   27   30   33   35 
   21-->   11   17   18   20   22   23   24   27   28   31   33   34 
   22-->   12   18   19   20   21   24   25   26   28   32   34   35 
   23-->   11   13   16   20   21   24   25   26   28   29   33   36 
   24-->   11   12   14   21   22   23   25   26   27   34   36   37 
   25-->   12   13   15   20   22   23   24   27   28   29   35   37 
   26-->   14   16   19   20   22   23   24   27   28   30   32   36 
   27-->   14   15   17   20   21   24   25   26   28   30   31   37 
   28-->   15   16   18   21   22   23   25   26   27   29   31   32 
   29-->   23   25   28   31   32   33   35   36   37 
   30-->   20   26   27   31   32   33   35   36   37 
   31-->   21   27   28   29   30   32   33   34   37 
   32-->   22   26   28   29   30   31   34   35   36 
   33-->   20   21   23   29   30   31   34   35   36 
   34-->   21   22   24   31   32   33   35   36   37 
   35-->   20   22   25   29   30   32   33   34   37 
   36-->   23   24   26   29   30   32   33   34   37 
   37-->   24   25   27   29   30   31   34   35   36 
 stateEON%isTS =  F

------------
EON Geometry
------------
Atoms
  Index Symbol   x (angstrom)   y (angstrom)   z (angstrom)  fix
      1     Pt     8.31521714     4.80239136    53.39436432    T
      2     Pt     5.54298786     0.00160612    53.39638802    T
      3     Pt     6.92910250     2.40199874    53.39537617    T
      4     Pt    11.08707571     4.80244586    53.39364887    T
      5     Pt     8.31484643     0.00166062    53.39567256    T
      6     Pt     9.70096096     2.40178486    53.39578674    T
      7     Pt     5.54335868     4.80260524    53.39395376    T
      8     Pt     2.77112940     0.00182001    53.39597745    T
      9     Pt     4.15724404     2.40221263    53.39496561    T
     10     Pt     9.70154331     5.60130339    51.13095421    T
     11     Pt     6.92931403     0.80051815    51.13297791    T
     12     Pt     8.31542867     3.20091077    51.13196606    T
     13     Pt     4.15782639     5.60173116    51.13013308    T
     14     Pt     1.38559711     0.80094593    51.13215677    T
     15     Pt     2.77171175     3.20133854    51.13114493    T
     16     Pt     6.92968485     5.60151727    51.13054365    T
     17     Pt     4.15745557     0.80073204    51.13256734    T
     18     Pt     5.54357021     3.20112466    51.13155549    T
     19     Pt     6.92989639     4.00003668    48.86813538    T
     20     Pt     8.31601103     6.40042930    48.86712354    T
     21     Pt     5.54378174     1.59964406    48.86914723    T
     22     Pt     9.70175484     3.99982280    48.86854595    T
     23     Pt    11.08786948     6.40021541    48.86753410    T
     24     Pt     8.31564020     1.59943018    48.86955780    T
     25     Pt     4.15803792     4.00025057    48.86772482    T
     26     Pt     5.54415256     6.40064318    48.86671297    T
     27     Pt     2.77192328     1.59985795    48.86873666    T
     28     Pt     1.38639089     2.39871548    46.60604201    T
     29     Pt     5.54436409     4.79916260    46.60431471    T
     30     Pt     6.93024583     7.19969029    46.60553293    T
     31     Pt     4.15824945     2.39876998    46.60532655    T
     32     Pt     8.31622256     4.79894871    46.60472527    T
     33     Pt     9.70210429     7.19947641    46.60594350    T
     34     Pt     6.93010792     2.39855609    46.60573712    T
     35     Pt     2.77250564     4.79937648    46.60390414    T
     36     Pt     4.15838737     7.19990418    46.60512236    T

Box (angstrom)
      1     8.31557575     0.00000000     0.00000000
      2     4.15778787     7.20149984     0.00000000
      3     0.00000000     0.00000000   100.00000000

Inverse Box (angstrom^-1)
      1     0.12025626    -0.00000000     0.00000000
      2    -0.06942998     0.13885996    -0.00000000
      3    -0.00000000    -0.00000000     0.01000000

Total System Charge             0.00000


------------
EON Geometry
------------
Atoms
  Index Symbol   x (angstrom)   y (angstrom)   z (angstrom)  fix
      1      O     5.54313068     6.40167227    54.53176307    F
      2     Pt     8.31521689     4.80239121    53.39436432    F
      3     Pt     5.54298795     0.00160657    53.39638802    F
      4     Pt     6.92910242     2.40199889    53.39537617    F
[...]
 Pt       8.31484625003275       0.00166095438842       7.79057254000001
 Pt       9.70096065009412       2.40178497143334       7.79068672000001
 Pt       5.54335874002163       4.80260512825669       7.78885373999999
 Pt       2.77112972009929       0.00182034438348       7.79087743000001
 Pt       4.15724422996046       2.40221274142009       7.78986559000000
 Pt       9.70154299325518       5.60130320411327       5.52585419000000
 Pt       6.92931397333284       0.80051841024007       5.52787788999997
 Pt       8.31542848339401       3.20091080707667       5.52686604000001
 Pt       4.15782657332153       5.60173097410002       5.52503306000000
 Pt       1.38559755339918       0.80094619022682       5.52705674999998
 Pt       2.77171206326036       3.20133857706342       5.52604491000001
 Pt       6.92968478338836       5.60151708410665       5.52544363000000
 Pt       4.15745576346601       0.80073230023344       5.52746732000000
 Pt       5.54357027332718       3.20112469707005       5.52645547000001
 Pt       6.92989632669389       4.00003664292001       3.26303535999997
 Pt       8.31601083655508       6.40042903975661       3.26202352000000
 Pt       5.54378180663273       1.59964424588340       3.26404721000000
 Pt       9.70175452656073       3.99982276292663       3.26344592999998
 Pt      11.08786903662190       6.40021514976323       3.26243407999997
 Pt       8.31564001669956       1.59943036609003       3.26445777999999
 Pt       4.15803810662708       4.00025053291338       3.26262480000001
 Pt       5.54415261668824       6.40064291974998       3.26161295000000
 Pt       2.77192359676590       1.59985813587678       3.26363664000000
 Pt       1.38639133006599       2.39871559172843       1.00094199000000
 Pt       5.54436414999380       4.79916248856334       0.99921468999999
 Pt       6.93024575986188       7.19968995559576       1.00043291000000
 Pt       4.15824963993263       2.39877009172674       1.00022653000000
 Pt       8.31622236986063       4.79894859856997       0.99962525000001
 Pt       9.70210396992871       7.19947607560239       1.00084348000000
 Pt       6.93010785999945       2.39855620173337       1.00063710000000
 Pt       2.77250594992697       4.79937636855672       0.99880411999999
 Pt       4.15838754999505       7.19990384538914       1.00002234000000
VEC1       8.31557575000000       0.00000000000000       0.00000000000000
VEC2       4.15778787000000       7.20149984000000       0.00000000000000
37
Id 40 Energy(hartree)     -7.25284954 TS
 O        5.54283223296313       2.61268457314857       9.08376543607026
 Pt       8.31521707667734       4.80239132276887       7.78926429999999
 Pt       5.54298788335501       0.00160623149567       7.79128800000001
 Pt       6.92910248001618       2.40199877713227       7.79027615000001
 Pt      11.08707556334398       4.80244582276718       7.78854885000000
 Pt       8.31484637002164       0.00166073149398       7.79057254000001
 Pt       9.70096085668300       2.40178489713889       7.79068672000001
 Pt       5.54335870001053       4.80260520276224       7.78885373999999
 Pt       2.77112950668818       0.00182012148905       7.79087743000001
 Pt       4.15724410334936       2.40221266712564       7.78986559000000
 Pt       9.70154320444406       5.60130332801883       5.52585419000000
 Pt       6.92931401112173       0.80051823674563       5.52787788999997
 Pt       8.31542860778290       3.20091078238223       5.52686604000001
 Pt       4.15782645111042       5.60173109800558       5.52503306000000
 Pt       1.38559725778808       0.80094601673238       5.52705674999998
 Pt       2.77171185444925       3.20133855236898       5.52604491000001
 Pt       6.92968482777724       5.60151720801220       5.52544363000000
 Pt       4.15745563445490       0.80073212673900       5.52746732000000
 Pt       5.54357023111607       3.20112467237560       5.52645547000001
 Pt       6.92989636888279       4.00003666762556       3.26303535999997
 Pt       8.31601096554396       6.40042921326216       3.26202352000000
 Pt       5.54378176222162       1.59964412198896       3.26404721000000
 Pt       9.70175473554961       3.99982278763219       3.26344592999998
 Pt      11.08786933221078       6.40021532326878       3.26243407999997
 Pt       8.31564013888844       1.59943024199559       3.26445777999999
 Pt       4.15803798221597       4.00025055761894       3.26262480000001
 Pt       5.54415257887714       6.40064309325553       3.26161295000000
 Pt       2.77192338555480       1.59985801198234       3.26363664000000
 Pt       1.38639103665489       2.39871551723398       1.00094199000000
 Pt       5.54436410998269       4.79916256286889       0.99921468999999
 Pt       6.93024580665077       7.19969017850131       1.00043291000000
 Pt       4.15824951332152       2.39877001723230       1.00022653000000
 Pt       8.31622249664951       4.79894867287552       0.99962525000001
 Pt       9.70210418331759       7.19947629850793       1.00084348000000
 Pt       6.93010789998834       2.39855612723892       1.00063710000000
 Pt       2.77250574331587       4.79937644286227       0.99880411999999
 Pt       4.15838742998394       7.19990406849468       1.00002234000000
VEC1       8.31557575000000       0.00000000000000       0.00000000000000
VEC2       4.15778787000000       7.20149984000000       0.00000000000000
37
Id 41 Energy(hartree)     -7.25283532 TS
 O        2.77183362680094       2.61264120533634       9.08400535765242
 Pt       8.31521695008846       4.80239124826331       7.78926429999999
 Pt       5.54298793016612       0.00160645459011       7.79128800000001
 Pt       6.92910244002729       2.40199885142671       7.79027615000001
 Pt      11.08707526995510       4.80244574826163       7.78854885000000
 Pt       8.31484625003275       0.00166095438842       7.79057254000001
 Pt       9.70096065009412       2.40178497143334       7.79068672000001
 Pt       5.54335874002163       4.80260512825669       7.78885373999999
 Pt       2.77112972009929       0.00182034438348       7.79087743000001
 Pt       4.15724422996046       2.40221274142009       7.78986559000000
 Pt       9.70154299325518       5.60130320411327       5.52585419000000
 Pt       6.92931397333284       0.80051841024007       5.52787788999997
 Pt       8.31542848339401       3.20091080707667       5.52686604000001
 Pt       4.15782657332153       5.60173097410002       5.52503306000000
 Pt       1.38559755339918       0.80094619022682       5.52705674999998
 Pt       2.77171206326036       3.20133857706342       5.52604491000001
 Pt       6.92968478338836       5.60151708410665       5.52544363000000
 Pt       4.15745576346601       0.80073230023344       5.52746732000000
 Pt       5.54357027332718       3.20112469707005       5.52645547000001
 Pt       6.92989632669389       4.00003664292001       3.26303535999997
 Pt       8.31601083655508       6.40042903975661       3.26202352000000
 Pt       5.54378180663273       1.59964424588340       3.26404721000000
 Pt       9.70175452656073       3.99982276292663       3.26344592999998
 Pt      11.08786903662190       6.40021514976323       3.26243407999997
 Pt       8.31564001669956       1.59943036609003       3.26445777999999
 Pt       4.15803810662708       4.00025053291338       3.26262480000001
 Pt       5.54415261668824       6.40064291974998       3.26161295000000
 Pt       2.77192359676590       1.59985813587678       3.26363664000000
 Pt       1.38639133006599       2.39871559172843       1.00094199000000
 Pt       5.54436414999380       4.79916248856334       0.99921468999999
 Pt       6.93024575986188       7.19968995559576       1.00043291000000
 Pt       4.15824963993263       2.39877009172674       1.00022653000000
 Pt       8.31622236986063       4.79894859856997       0.99962525000001
 Pt       9.70210396992871       7.19947607560239       1.00084348000000
 Pt       6.93010785999945       2.39855620173337       1.00063710000000
 Pt       2.77250594992697       4.79937636855672       0.99880411999999
 Pt       4.15838754999505       7.19990384538914       1.00002234000000
VEC1       8.31557575000000       0.00000000000000       0.00000000000000
VEC2       4.15778787000000       7.20149984000000       0.00000000000000
37
Id 42 Energy(hartree)     -7.25283276 TS
 O       10.21278858358174       5.89630666639388       9.08370287269173
 Pt       8.31521676020513       4.80239113650498       7.78926429999999
 Pt       5.54298800038278       0.00160678923177       7.79128800000001
 Pt       6.92910238004396       2.40199896286838       7.79027615000001
 Pt      11.08707482987177       4.80244563650330       7.78854885000000
 Pt       8.31484607004943       0.00166128873008       7.79057254000001
 Pt       9.70096034021079       2.40178508287500       7.79068672000001
 Pt       5.54335880003830       4.80260501649836       7.78885373999999
 Pt       2.77113004021594       0.00182067872514       7.79087743000001
 Pt       4.15724441987712       2.40221285286175       7.78986559000000
 Pt       9.70154267647186       5.60130301825495       5.52585419000000
 Pt       6.92931391664951       0.80051867048173       5.52787788999997
 Pt       8.31542829681068       3.20091084411834       5.52686604000001
 Pt       4.15782675663819       5.60173078824170       5.52503306000000
 Pt       1.38559799681584       0.80094645046848       5.52705674999998
 Pt       2.77171237647701       3.20133861410509       5.52604491000001
 Pt       6.92968471680503       5.60151689824832       5.52544363000000
 Pt       4.15745595698267       0.80073256047510       5.52746732000000
 Pt       5.54357033664385       3.20112473411171       5.52645547000001
 Pt       6.92989626341057       4.00003660586168       3.26303535999997
 Pt       8.31601064307175       6.40042877949829       3.26202352000000
 Pt       5.54378187324939       1.59964443172506       3.26404721000000
 Pt       9.70175421307741       3.99982272586830       3.26344592999998
 Pt      11.08786859323858       6.40021488950491       3.26243407999997
 Pt       8.31563983341623       1.59943055223169       3.26445777999999
 Pt       4.15803829324374       4.00025049585505       3.26262480000001
 Pt       5.54415267340491       6.40064265949166       3.26161295000000
 Pt       2.77192391358256       1.59985832171844       3.26363664000000
 Pt       1.38639177018264       2.39871570347009       1.00094199000000
 Pt       5.54436421001046       4.79916237710501       0.99921468999999
 Pt       6.93024568967855       7.19968962123744       1.00043291000000
 Pt       4.15824982984929       2.39877020346840       1.00022653000000
 Pt       8.31622217967730       4.79894848711164       0.99962525000001
 Pt       9.70210364984538       7.19947574124406       1.00084348000000
 Pt       6.93010780001612       2.39855631347503       1.00063710000000
 Pt       2.77250625984363       4.79937625709838       0.99880411999999
 Pt       4.15838773001171       7.19990351073081       1.00002234000000
VEC1       8.31557575000000       0.00000000000000       0.00000000000000
VEC2       4.15778787000000       7.20149984000000       0.00000000000000
37
Id 43 Energy(hartree)     -7.25283253 TS
 O        7.44014581076043       5.89680744043227       9.08376386641330
 Pt       8.31521695008846       4.80239124826331       7.78926429999999
 Pt       5.54298793016612       0.00160645459011       7.79128800000001
 Pt       6.92910244002729       2.40199885142671       7.79027615000001
 Pt      11.08707526995510       4.80244574826163       7.78854885000000
 Pt       8.31484625003275       0.00166095438842       7.79057254000001
 Pt       9.70096065009412       2.40178497143334       7.79068672000001
 Pt       5.54335874002163       4.80260512825669       7.78885373999999
 Pt       2.77112972009929       0.00182034438348       7.79087743000001
 Pt       4.15724422996046       2.40221274142009       7.78986559000000
 Pt       9.70154299325518       5.60130320411327       5.52585419000000
 Pt       6.92931397333284       0.80051841024007       5.52787788999997
 Pt       8.31542848339401       3.20091080707667       5.52686604000001
 Pt       4.15782657332153       5.60173097410002       5.52503306000000
 Pt       1.38559755339918       0.80094619022682       5.52705674999998
 Pt       2.77171206326036       3.20133857706342       5.52604491000001
 Pt       6.92968478338836       5.60151708410665       5.52544363000000
 Pt       4.15745576346601       0.80073230023344       5.52746732000000
 Pt       5.54357027332718       3.20112469707005       5.52645547000001
 Pt       6.92989632669389       4.00003664292001       3.26303535999997
 Pt       8.31601083655508       6.40042903975661       3.26202352000000
 Pt       5.54378180663273       1.59964424588340       3.26404721000000
 Pt       9.70175452656073       3.99982276292663       3.26344592999998
 Pt      11.08786903662190       6.40021514976323       3.26243407999997
 Pt       8.31564001669956       1.59943036609003       3.26445777999999
 Pt       4.15803810662708       4.00025053291338       3.26262480000001
 Pt       5.54415261668824       6.40064291974998       3.26161295000000
 Pt       2.77192359676590       1.59985813587678       3.26363664000000
 Pt       1.38639133006599       2.39871559172843       1.00094199000000
 Pt       5.54436414999380       4.79916248856334       0.99921468999999
 Pt       6.93024575986188       7.19968995559576       1.00043291000000
 Pt       4.15824963993263       2.39877009172674       1.00022653000000
 Pt       8.31622236986063       4.79894859856997       0.99962525000001
 Pt       9.70210396992871       7.19947607560239       1.00084348000000
 Pt       6.93010785999945       2.39855620173337       1.00063710000000
 Pt       2.77250594992697       4.79937636855672       0.99880411999999
 Pt       4.15838754999505       7.19990384538914       1.00002234000000
VEC1       8.31557575000000       0.00000000000000       0.00000000000000
VEC2       4.15778787000000       7.20149984000000       0.00000000000000
37
Id 44 Energy(hartree)     -7.25283184 TS
 O        4.15746784048388       5.01087225472313       9.08274381351868
 Pt       8.31521695008846       4.80239124826331       7.78926429999999
 Pt       5.54298793016612       0.00160645459011       7.79128800000001
 Pt       6.92910244002729       2.40199885142671       7.79027615000001
 Pt      11.08707526995510       4.80244574826163       7.78854885000000
 Pt       8.31484625003275       0.00166095438842       7.79057254000001
 Pt       9.70096065009412       2.40178497143334       7.79068672000001
 Pt       5.54335874002163       4.80260512825669       7.78885373999999
 Pt       2.77112972009929       0.00182034438348       7.79087743000001
 Pt       4.15724422996046       2.40221274142009       7.78986559000000
 Pt       9.70154299325518       5.60130320411327       5.52585419000000
 Pt       6.92931397333284       0.80051841024007       5.52787788999997
 Pt       8.31542848339401       3.20091080707667       5.52686604000001
 Pt       4.15782657332153       5.60173097410002       5.52503306000000
 Pt       1.38559755339918       0.80094619022682       5.52705674999998
 Pt       2.77171206326036       3.20133857706342       5.52604491000001
 Pt       6.92968478338836       5.60151708410665       5.52544363000000
 Pt       4.15745576346601       0.80073230023344       5.52746732000000
 Pt       5.54357027332718       3.20112469707005       5.52645547000001
 Pt       6.92989632669389       4.00003664292001       3.26303535999997
 Pt       8.31601083655508       6.40042903975661       3.26202352000000
 Pt       5.54378180663273       1.59964424588340       3.26404721000000
 Pt       9.70175452656073       3.99982276292663       3.26344592999998
 Pt      11.08786903662190       6.40021514976323       3.26243407999997
 Pt       8.31564001669956       1.59943036609003       3.26445777999999
 Pt       4.15803810662708       4.00025053291338       3.26262480000001
 Pt       5.54415261668824       6.40064291974998       3.26161295000000
 Pt       2.77192359676590       1.59985813587678       3.26363664000000
 Pt       1.38639133006599       2.39871559172843       1.00094199000000
 Pt       5.54436414999380       4.79916248856334       0.99921468999999
 Pt       6.93024575986188       7.19968995559576       1.00043291000000
 Pt       4.15824963993263       2.39877009172674       1.00022653000000
 Pt       8.31622236986063       4.79894859856997       0.99962525000001
 Pt       9.70210396992871       7.19947607560239       1.00084348000000
 Pt       6.93010785999945       2.39855620173337       1.00063710000000
 Pt       2.77250594992697       4.79937636855672       0.99880411999999
 Pt       4.15838754999505       7.19990384538914       1.00002234000000
VEC1       8.31557575000000       0.00000000000000       0.00000000000000
VEC2       4.15778787000000       7.20149984000000       0.00000000000000
37
Id 45 Energy(hartree)     -7.25282175 TS
 O        4.66851817035287       5.89665957954878       9.08342349580971
 Pt       8.31521688679402       4.80239121101054       7.78926429999999
 Pt       5.54298795357167       0.00160656613733       7.79128800000001
 Pt       6.92910242003285       2.40199888857393       7.79027615000001
 Pt      11.08707512326066       4.80244571100885       7.78854885000000
 Pt       8.31484619003831       0.00166106583564       7.79057254000001
 Pt       9.70096054679967       2.40178500858056       7.79068672000001
 Pt       5.54335876002719       4.80260509100391       7.78885373999999
 Pt       2.77112982680484       0.00182045583070       7.79087743000001
 Pt       4.15724429326602       2.40221277856730       7.78986559000000
 Pt       9.70154288766074       5.60130314216050       5.52585419000000
 Pt       6.92931395443840       0.80051849698729       5.52787788999997
 Pt       8.31542842119957       3.20091081942389       5.52686604000001
 Pt       4.15782663442709       5.60173091214725       5.52503306000000
 Pt       1.38559770120474       0.80094627697404       5.52705674999998
 Pt       2.77171216766591       3.20133858941064       5.52604491000001
 Pt       6.92968476119391       5.60151702215387       5.52544363000000
 Pt       4.15745582797157       0.80073238698066       5.52746732000000
 Pt       5.54357029443274       3.20112470941727       5.52645547000001
 Pt       6.92989630559946       4.00003663056723       3.26303535999997
 Pt       8.31601077206063       6.40042895300383       3.26202352000000
 Pt       5.54378182883829       1.59964430783062       3.26404721000000
 Pt       9.70175442206629       3.99982275057386       3.26344592999998
 Pt      11.08786888882746       6.40021506301046       3.26243407999997
 Pt       8.31563995560512       1.59943042813725       3.26445777999999
 Pt       4.15803816883263       4.00025052056060       3.26262480000001
 Pt       5.54415263559380       6.40064283299721       3.26161295000000
 Pt       2.77192370237146       1.59985819782400       3.26363664000000
 Pt       1.38639147677154       2.39871562897565       1.00094199000000
 Pt       5.54436416999935       4.79916245141056       0.99921468999999
 Pt       6.93024573646744       7.19968984414298       1.00043291000000
 Pt       4.15824970323818       2.39877012897396       1.00022653000000
 Pt       8.31622230646618       4.79894856141719       0.99962525000001
 Pt       9.70210386323427       7.19947596414961       1.00084348000000
 Pt       6.93010784000501       2.39855623898059       1.00063710000000
 Pt       2.77250605323253       4.79937633140394       0.99880411999999
 Pt       4.15838761000061       7.19990373383636       1.00002234000000
VEC1       8.31557575000000       0.00000000000000       0.00000000000000
VEC2       4.15778787000000       7.20149984000000       0.00000000000000

AMS application finished. Exiting.
NORMAL TERMINATION
     Total cpu time:       1.11
  Total system time:       0.19
 Total elapsed time:       1.51
