

 Parallel Execution: Process Information
 ==============================================================================
 Rank   Node Name                              NodeID   MyNodeRank  NodeMaster
    0   aguirre-XPS-13-7390                       0          0          0
    1   aguirre-XPS-13-7390                       0          1         -1
    2   aguirre-XPS-13-7390                       0          2         -1
    3   aguirre-XPS-13-7390                       0          3         -1
 ==============================================================================


May use up to 7486MB of RAM as shared memory on node 0
Floating license: not using directory 
Floating license: not using directory 
Floating license: not using directory 
Floating license: not using directory 

 *******************************************************************************
 *                                                                             *
 *  --------------------------------                                           *
 *   Amsterdam Modeling Suite (AMS)              2022.203                      *
 *  --------------------------------                                           *
 *                                               r103988 2022-05-11            *
 *                                                                             *
 *                                                                             *
 *                              =================                              *
 *                              |               |                              *
 *                              |     A M S     |                              *
 *                              |               |                              *
 *                              =================                              *
 *                                                                             *
 *                                                                             *
 *   Online information and documentation:  https://www.scm.com/support/       *
 *   E-mail:  support@scm.com   info@scm.com                                   *
 *                                                                             *
 *   Scientific publications using AMS results must be properly referenced     *
 *   See the User Manuals (or the web site) for recommended citations          *
 *   The terms and conditions of the End User License Agreement apply to       *
 *   the use of AMS, https://www.scm.com/license-terms/                        *
 *                                                                             *
 ***********************  x86_64_linux_gnu7 / intelmpi  ************************
 
 Licensed to: Dr. Nestor Aguirre Castiblanco  / SCM / Amsterdam / NETHERLANDS 2022-01-24 09:33:25
 SCM User ID: u22021
  
 AMS 2022.203  RunTime: May13-2022 12:20:07  ShM Nodes: 1  Procs: 4

 AMS jobname: CO_ads-Pt111
 AMS jobid  : 1842077543

 Start   directory: /home/aguirre/Develop/pyzacros/test_RKFLoader/CO_ads-Pt111/
 Results directory: /home/aguirre/Develop/pyzacros/test_RKFLoader/CO_ads-Pt111/
 Scratch directory: /scratch/aguirre/amstmp_CO_ads-Pt111_kid0.1842077543/


 Communication costs MPI_COMM_WORLD:      0.732 usec per message,   0.0089 usec per 8-byte item
 Communication costs for intra-node:      0.660 usec per message,   0.0095 usec per 8-byte item

 RNG seed: 585399391 2069816754 -140085098 1075112024 -1907345051 -2081526850 -772095687 982018027
 MPI rank    0: Number of processors available to this process:      2
 MPI rank    0: Default max number of OpenMP threads:                2
 MPI rank    0: The OMP_NUM_THREADS environment variable is not set!
 MPI rank    0: Restrict max number of OpenMP threads to:            1
Force field identifier: Reactive MD-force field: C/H/O/N/S/F/Pt/
 Triple bond stabilization enabled for C-O only
 Non-bonding interaction type[nonbontype]:
 No inner wall, shielding
 Warning:changed vval3 to valf for X 

Reference geometry:
   Note: All states are going to be aligned with this reference

--------
Geometry
--------
Formula: Pt36
Atoms
  Index Symbol   x (angstrom)   y (angstrom)   z (angstrom)
      1     Pt     9.24070201     6.95527267     1.31036083       region=surface
      2     Pt     9.24070201     2.15427277     1.31036083       region=surface
      3     Pt    10.62663130     4.55477272     1.31036083       region=surface
      4     Pt    12.01256059     6.95527267     1.31036083       region=surface
      5     Pt     3.69698485     2.15427277     8.10000000       region=surface
      6     Pt     5.08291414     4.55477272     8.10000000       region=surface
      7     Pt     6.46884343     6.95527267     8.10000000       region=surface
      8     Pt     6.46884343     2.15427277     8.10000000       region=surface
      9     Pt     7.85477272     4.55477272     8.10000000       region=surface
     10     Pt     9.24070201     6.95527267     8.10000000       region=surface
     11     Pt     9.24070201     2.15427277     8.10000000       region=surface
     12     Pt    10.62663130     4.55477272     8.10000000       region=surface
     13     Pt    12.01256059     6.95527267     8.10000000       region=surface
     14     Pt     5.08291414     2.95443942     5.83678694       region=surface
     15     Pt     6.46884343     5.35493937     5.83678694       region=surface
     16     Pt     7.85477272     7.75543932     5.83678694       region=surface
     17     Pt     7.85477272     2.95443942     5.83678694       region=surface
     18     Pt     9.24070201     5.35493937     5.83678694       region=surface
     19     Pt    10.62663130     7.75543932     5.83678694       region=surface
     20     Pt    10.62663130     2.95443942     5.83678694       region=surface
     21     Pt    12.01256059     5.35493937     5.83678694       region=surface
     22     Pt    13.39848987     7.75543932     5.83678694       region=surface
     23     Pt     2.31105556     1.35410612     3.57357389       region=surface
     24     Pt     3.69698485     3.75460607     3.57357389       region=surface
     25     Pt     5.08291414     6.15510602     3.57357389       region=surface
     26     Pt     5.08291414     1.35410612     3.57357389       region=surface
     27     Pt     6.46884343     3.75460607     3.57357389       region=surface
     28     Pt     7.85477272     6.15510602     3.57357389       region=surface
     29     Pt     7.85477272     1.35410612     3.57357389       region=surface
     30     Pt     9.24070201     3.75460607     3.57357389       region=surface
     31     Pt    10.62663130     6.15510602     3.57357389       region=surface
     32     Pt     3.69698485     2.15427277     1.31036083       region=surface
     33     Pt     5.08291414     4.55477272     1.31036083       region=surface
     34     Pt     6.46884343     6.95527267     1.31036083       region=surface
     35     Pt     6.46884343     2.15427277     1.31036083       region=surface
     36     Pt     7.85477272     4.55477272     1.31036083       region=surface

Lattice vectors (angstrom)
      1     8.31557575     0.00000000     0.00000000
      2     4.15778787     7.20149984     0.00000000

Unit cell area (angstrom^2)        59.88462

Total System Charge             0.00000

       ***************************
       *  GEOMETRY OPTIMIZATION  *
       ***************************

FIRE optimizer config
       nMin:  5 steps
    dtStart:  0.2500 fs
      dtMax:  0.5000 fs
       fInc:  1.1000
       fDec:  0.5000
 alphaStart:  0.1000
     fAlpha:  0.9900
 Opt. latt.:  F
Convergence criteria:
       Energy:  0.000010 Ha per atom
    Gradients:  0.000184 Ha/Angstrom
         Step:  0.010000 Angstrom
Stress energy:  0.000500 Ha per atom

Relaxing 6 nuclear degrees of freedom with FIRE.
 Rigid motions settings for: FIRE
 Atomic rotations (x,y,z):     F F F
 Atomic translations (x,y,z):  F F F
 Tolerance:                    9.9999999999999995E-007
Rank   volume(%)   N atoms
   0       24.84        15
   1       23.16        12
   2       26.91         5
   3       25.09         6
Unit cell division (XYZ):    2    1    2
My region size in cell units  0.51750000  1.00000000  0.48000000
Ghost region in cell units    1.73574953  1.73574954  1.32496658
Total space in cell units     3.98899907  4.47149907  3.12993316
 Local atoms:          15 , including ghost atoms:          38
 Local Verlet list:        2076 local (incl my-other) pairs,        90 self-pairs      1333 foreign my-other pairs,       581 foreign other-other pairs

Geometry at FIRE step 1:

--------
Geometry
--------
Formula: COPt36
Atoms
  Index Symbol   x (angstrom)   y (angstrom)   z (angstrom)
      1      C     5.08349646     2.95549766     9.52500307       region=adsorbate
      2      O     5.08420214     2.95701792    10.74456048       region=adsorbate
      3     Pt     9.24070201     6.95527267     1.31036083       region=surface
      4     Pt     9.24070201     2.15427277     1.31036083       region=surface
      5     Pt    10.62663130     4.55477272     1.31036083       region=surface
      6     Pt    12.01256059     6.95527267     1.31036083       region=surface
      7     Pt     3.69698485     2.15427277     8.10000000       region=surface
      8     Pt     5.08291414     4.55477272     8.10000000       region=surface
      9     Pt     6.46884343     6.95527267     8.10000000       region=surface
     10     Pt     6.46884343     2.15427277     8.10000000       region=surface
     11     Pt     7.85477272     4.55477272     8.10000000       region=surface
     12     Pt     9.24070201     6.95527267     8.10000000       region=surface
     13     Pt     9.24070201     2.15427277     8.10000000       region=surface
     14     Pt    10.62663130     4.55477272     8.10000000       region=surface
     15     Pt    12.01256059     6.95527267     8.10000000       region=surface
     16     Pt     5.08291414     2.95443942     5.83678694       region=surface
     17     Pt     6.46884343     5.35493937     5.83678694       region=surface
     18     Pt     7.85477272     7.75543932     5.83678694       region=surface
     19     Pt     7.85477272     2.95443942     5.83678694       region=surface
     20     Pt     9.24070201     5.35493937     5.83678694       region=surface
     21     Pt    10.62663130     7.75543932     5.83678694       region=surface
     22     Pt    10.62663130     2.95443942     5.83678694       region=surface
     23     Pt    12.01256059     5.35493937     5.83678694       region=surface
     24     Pt    13.39848987     7.75543932     5.83678694       region=surface
     25     Pt     2.31105556     1.35410612     3.57357389       region=surface
     26     Pt     3.69698485     3.75460607     3.57357389       region=surface
     27     Pt     5.08291414     6.15510602     3.57357389       region=surface
     28     Pt     5.08291414     1.35410612     3.57357389       region=surface
     29     Pt     6.46884343     3.75460607     3.57357389       region=surface
     30     Pt     7.85477272     6.15510602     3.57357389       region=surface
     31     Pt     7.85477272     1.35410612     3.57357389       region=surface
     32     Pt     9.24070201     3.75460607     3.57357389       region=surface
     33     Pt    10.62663130     6.15510602     3.57357389       region=surface
     34     Pt     3.69698485     2.15427277     1.31036083       region=surface
     35     Pt     5.08291414     4.55477272     1.31036083       region=surface
     36     Pt     6.46884343     6.95527267     1.31036083       region=surface
     37     Pt     6.46884343     2.15427277     1.31036083       region=surface
     38     Pt     7.85477272     4.55477272     1.31036083       region=surface

Lattice vectors (angstrom)
      1     8.31557575     0.00000000     0.00000000
      2     4.15778787     7.20149984     0.00000000

Unit cell area (angstrom^2)        59.88462

Total System Charge             0.00000


Geometry at FIRE step 2:

--------
Geometry
--------
Formula: COPt36
Atoms
  Index Symbol   x (angstrom)   y (angstrom)   z (angstrom)
      1      C     5.08349520     2.95549607     9.52499668       region=adsorbate
      2      O     5.08420101     2.95701533    10.74455850       region=adsorbate
      3     Pt     9.24070201     6.95527267     1.31036083       region=surface
      4     Pt     9.24070201     2.15427277     1.31036083       region=surface
      5     Pt    10.62663130     4.55477272     1.31036083       region=surface
      6     Pt    12.01256059     6.95527267     1.31036083       region=surface
      7     Pt     3.69698485     2.15427277     8.10000000       region=surface
      8     Pt     5.08291414     4.55477272     8.10000000       region=surface
      9     Pt     6.46884343     6.95527267     8.10000000       region=surface
     10     Pt     6.46884343     2.15427277     8.10000000       region=surface
     11     Pt     7.85477272     4.55477272     8.10000000       region=surface
     12     Pt     9.24070201     6.95527267     8.10000000       region=surface
     13     Pt     9.24070201     2.15427277     8.10000000       region=surface
     14     Pt    10.62663130     4.55477272     8.10000000       region=surface
     15     Pt    12.01256059     6.95527267     8.10000000       region=surface
     16     Pt     5.08291414     2.95443942     5.83678694       region=surface
     17     Pt     6.46884343     5.35493937     5.83678694       region=surface
     18     Pt     7.85477272     7.75543932     5.83678694       region=surface
     19     Pt     7.85477272     2.95443942     5.83678694       region=surface
     20     Pt     9.24070201     5.35493937     5.83678694       region=surface
     21     Pt    10.62663130     7.75543932     5.83678694       region=surface
     22     Pt    10.62663130     2.95443942     5.83678694       region=surface
     23     Pt    12.01256059     5.35493937     5.83678694       region=surface
     24     Pt    13.39848987     7.75543932     5.83678694       region=surface
     25     Pt     2.31105556     1.35410612     3.57357389       region=surface
     26     Pt     3.69698485     3.75460607     3.57357389       region=surface
     27     Pt     5.08291414     6.15510602     3.57357389       region=surface
     28     Pt     5.08291414     1.35410612     3.57357389       region=surface
     29     Pt     6.46884343     3.75460607     3.57357389       region=surface
     30     Pt     7.85477272     6.15510602     3.57357389       region=surface
     31     Pt     7.85477272     1.35410612     3.57357389       region=surface
     32     Pt     9.24070201     3.75460607     3.57357389       region=surface
     33     Pt    10.62663130     6.15510602     3.57357389       region=surface
     34     Pt     3.69698485     2.15427277     1.31036083       region=surface
     35     Pt     5.08291414     4.55477272     1.31036083       region=surface
     36     Pt     6.46884343     6.95527267     1.31036083       region=surface
     37     Pt     6.46884343     2.15427277     1.31036083       region=surface
     38     Pt     7.85477272     4.55477272     1.31036083       region=surface

Lattice vectors (angstrom)
      1     8.31557575     0.00000000     0.00000000
      2     4.15778787     7.20149984     0.00000000

Unit cell area (angstrom^2)        59.88462

Total System Charge             0.00000


Geometry at FIRE step 3:

--------
Geometry
--------
Formula: COPt36
Atoms
  Index Symbol   x (angstrom)   y (angstrom)   z (angstrom)
      1      C     5.08349309     2.95549342     9.52498700       region=adsorbate
      2      O     5.08419912     2.95701099    10.74455439       region=adsorbate
      3     Pt     9.24070201     6.95527267     1.31036083       region=surface
      4     Pt     9.24070201     2.15427277     1.31036083       region=surface
      5     Pt    10.62663130     4.55477272     1.31036083       region=surface
      6     Pt    12.01256059     6.95527267     1.31036083       region=surface
      7     Pt     3.69698485     2.15427277     8.10000000       region=surface
      8     Pt     5.08291414     4.55477272     8.10000000       region=surface
      9     Pt     6.46884343     6.95527267     8.10000000       region=surface
     10     Pt     6.46884343     2.15427277     8.10000000       region=surface
     11     Pt     7.85477272     4.55477272     8.10000000       region=surface
     12     Pt     9.24070201     6.95527267     8.10000000       region=surface
     13     Pt     9.24070201     2.15427277     8.10000000       region=surface
     14     Pt    10.62663130     4.55477272     8.10000000       region=surface
     15     Pt    12.01256059     6.95527267     8.10000000       region=surface
     16     Pt     5.08291414     2.95443942     5.83678694       region=surface
     17     Pt     6.46884343     5.35493937     5.83678694       region=surface
     18     Pt     7.85477272     7.75543932     5.83678694       region=surface
     19     Pt     7.85477272     2.95443942     5.83678694       region=surface
     20     Pt     9.24070201     5.35493937     5.83678694       region=surface
     21     Pt    10.62663130     7.75543932     5.83678694       region=surface
     22     Pt    10.62663130     2.95443942     5.83678694       region=surface
     23     Pt    12.01256059     5.35493937     5.83678694       region=surface
     24     Pt    13.39848987     7.75543932     5.83678694       region=surface
     25     Pt     2.31105556     1.35410612     3.57357389       region=surface
     26     Pt     3.69698485     3.75460607     3.57357389       region=surface
     27     Pt     5.08291414     6.15510602     3.57357389       region=surface
     28     Pt     5.08291414     1.35410612     3.57357389       region=surface
     29     Pt     6.46884343     3.75460607     3.57357389       region=surface
     30     Pt     7.85477272     6.15510602     3.57357389       region=surface
     31     Pt     7.85477272     1.35410612     3.57357389       region=surface
     32     Pt     9.24070201     3.75460607     3.57357389       region=surface
     33     Pt    10.62663130     6.15510602     3.57357389       region=surface
     34     Pt     3.69698485     2.15427277     1.31036083       region=surface
     35     Pt     5.08291414     4.55477272     1.31036083       region=surface
     36     Pt     6.46884343     6.95527267     1.31036083       region=surface
     37     Pt     6.46884343     2.15427277     1.31036083       region=surface
     38     Pt     7.85477272     4.55477272     1.31036083       region=surface

Lattice vectors (angstrom)
      1     8.31557575     0.00000000     0.00000000
      2     4.15778787     7.20149984     0.00000000

Unit cell area (angstrom^2)        59.88462

Total System Charge             0.00000


Geometry at FIRE step 4:

--------
Geometry
--------
Formula: COPt36
Atoms
  Index Symbol   x (angstrom)   y (angstrom)   z (angstrom)
      1      C     5.08349014     2.95548970     9.52497526       region=adsorbate
      2      O     5.08419645     2.95700489    10.74454715       region=adsorbate
      3     Pt     9.24070201     6.95527267     1.31036083       region=surface
      4     Pt     9.24070201     2.15427277     1.31036083       region=surface
      5     Pt    10.62663130     4.55477272     1.31036083       region=surface
      6     Pt    12.01256059     6.95527267     1.31036083       region=surface
      7     Pt     3.69698485     2.15427277     8.10000000       region=surface
      8     Pt     5.08291414     4.55477272     8.10000000       region=surface
      9     Pt     6.46884343     6.95527267     8.10000000       region=surface
     10     Pt     6.46884343     2.15427277     8.10000000       region=surface
     11     Pt     7.85477272     4.55477272     8.10000000       region=surface
     12     Pt     9.24070201     6.95527267     8.10000000       region=surface
     13     Pt     9.24070201     2.15427277     8.10000000       region=surface
     14     Pt    10.62663130     4.55477272     8.10000000       region=surface
     15     Pt    12.01256059     6.95527267     8.10000000       region=surface
     16     Pt     5.08291414     2.95443942     5.83678694       region=surface
     17     Pt     6.46884343     5.35493937     5.83678694       region=surface
     18     Pt     7.85477272     7.75543932     5.83678694       region=surface
     19     Pt     7.85477272     2.95443942     5.83678694       region=surface
     20     Pt     9.24070201     5.35493937     5.83678694       region=surface
     21     Pt    10.62663130     7.75543932     5.83678694       region=surface
     22     Pt    10.62663130     2.95443942     5.83678694       region=surface
     23     Pt    12.01256059     5.35493937     5.83678694       region=surface
     24     Pt    13.39848987     7.75543932     5.83678694       region=surface
     25     Pt     2.31105556     1.35410612     3.57357389       region=surface
     26     Pt     3.69698485     3.75460607     3.57357389       region=surface
     27     Pt     5.08291414     6.15510602     3.57357389       region=surface
     28     Pt     5.08291414     1.35410612     3.57357389       region=surface
     29     Pt     6.46884343     3.75460607     3.57357389       region=surface
     30     Pt     7.85477272     6.15510602     3.57357389       region=surface
     31     Pt     7.85477272     1.35410612     3.57357389       region=surface
     32     Pt     9.24070201     3.75460607     3.57357389       region=surface
     33     Pt    10.62663130     6.15510602     3.57357389       region=surface
     34     Pt     3.69698485     2.15427277     1.31036083       region=surface
     35     Pt     5.08291414     4.55477272     1.31036083       region=surface
     36     Pt     6.46884343     6.95527267     1.31036083       region=surface
     37     Pt     6.46884343     2.15427277     1.31036083       region=surface
     38     Pt     7.85477272     4.55477272     1.31036083       region=surface

Lattice vectors (angstrom)
      1     8.31557575     0.00000000     0.00000000
      2     4.15778787     7.20149984     0.00000000

Unit cell area (angstrom^2)        59.88462

Total System Charge             0.00000


Geometry at FIRE step 5:

--------
Geometry
--------
Formula: COPt36
Atoms
  Index Symbol   x (angstrom)   y (angstrom)   z (angstrom)
      1      C     5.08348637     2.95548494     9.52496273       region=adsorbate
      2      O     5.08419301     2.95699704    10.74453602       region=adsorbate
      3     Pt     9.24070201     6.95527267     1.31036083       region=surface
      4     Pt     9.24070201     2.15427277     1.31036083       region=surface
      5     Pt    10.62663130     4.55477272     1.31036083       region=surface
      6     Pt    12.01256059     6.95527267     1.31036083       region=surface
      7     Pt     3.69698485     2.15427277     8.10000000       region=surface
      8     Pt     5.08291414     4.55477272     8.10000000       region=surface
      9     Pt     6.46884343     6.95527267     8.10000000       region=surface
     10     Pt     6.46884343     2.15427277     8.10000000       region=surface
     11     Pt     7.85477272     4.55477272     8.10000000       region=surface
     12     Pt     9.24070201     6.95527267     8.10000000       region=surface
     13     Pt     9.24070201     2.15427277     8.10000000       region=surface
     14     Pt    10.62663130     4.55477272     8.10000000       region=surface
     15     Pt    12.01256059     6.95527267     8.10000000       region=surface
     16     Pt     5.08291414     2.95443942     5.83678694       region=surface
     17     Pt     6.46884343     5.35493937     5.83678694       region=surface
     18     Pt     7.85477272     7.75543932     5.83678694       region=surface
     19     Pt     7.85477272     2.95443942     5.83678694       region=surface
     20     Pt     9.24070201     5.35493937     5.83678694       region=surface
     21     Pt    10.62663130     7.75543932     5.83678694       region=surface
     22     Pt    10.62663130     2.95443942     5.83678694       region=surface
     23     Pt    12.01256059     5.35493937     5.83678694       region=surface
     24     Pt    13.39848987     7.75543932     5.83678694       region=surface
     25     Pt     2.31105556     1.35410612     3.57357389       region=surface
     26     Pt     3.69698485     3.75460607     3.57357389       region=surface
     27     Pt     5.08291414     6.15510602     3.57357389       region=surface
     28     Pt     5.08291414     1.35410612     3.57357389       region=surface
     29     Pt     6.46884343     3.75460607     3.57357389       region=surface
     30     Pt     7.85477272     6.15510602     3.57357389       region=surface
     31     Pt     7.85477272     1.35410612     3.57357389       region=surface
     32     Pt     9.24070201     3.75460607     3.57357389       region=surface
     33     Pt    10.62663130     6.15510602     3.57357389       region=surface
     34     Pt     3.69698485     2.15427277     1.31036083       region=surface
     35     Pt     5.08291414     4.55477272     1.31036083       region=surface
     36     Pt     6.46884343     6.95527267     1.31036083       region=surface
     37     Pt     6.46884343     2.15427277     1.31036083       region=surface
     38     Pt     7.85477272     4.55477272     1.31036083       region=surface

Lattice vectors (angstrom)
      1     8.31557575     0.00000000     0.00000000
      2     4.15778787     7.20149984     0.00000000

Unit cell area (angstrom^2)        59.88462

Total System Charge             0.00000


Geometry at FIRE step 6:

--------
Geometry
--------
Formula: COPt36
Atoms
  Index Symbol   x (angstrom)   y (angstrom)   z (angstrom)
      1      C     5.08348182     2.95547918     9.52495006       region=adsorbate
      2      O     5.08418881     2.95698748    10.74452089       region=adsorbate
      3     Pt     9.24070201     6.95527267     1.31036083       region=surface
      4     Pt     9.24070201     2.15427277     1.31036083       region=surface
      5     Pt    10.62663130     4.55477272     1.31036083       region=surface
      6     Pt    12.01256059     6.95527267     1.31036083       region=surface
      7     Pt     3.69698485     2.15427277     8.10000000       region=surface
      8     Pt     5.08291414     4.55477272     8.10000000       region=surface
      9     Pt     6.46884343     6.95527267     8.10000000       region=surface
     10     Pt     6.46884343     2.15427277     8.10000000       region=surface
     11     Pt     7.85477272     4.55477272     8.10000000       region=surface
     12     Pt     9.24070201     6.95527267     8.10000000       region=surface
     13     Pt     9.24070201     2.15427277     8.10000000       region=surface
     14     Pt    10.62663130     4.55477272     8.10000000       region=surface
     15     Pt    12.01256059     6.95527267     8.10000000       region=surface
     16     Pt     5.08291414     2.95443942     5.83678694       region=surface
     17     Pt     6.46884343     5.35493937     5.83678694       region=surface
     18     Pt     7.85477272     7.75543932     5.83678694       region=surface
     19     Pt     7.85477272     2.95443942     5.83678694       region=surface
     20     Pt     9.24070201     5.35493937     5.83678694       region=surface
     21     Pt    10.62663130     7.75543932     5.83678694       region=surface
     22     Pt    10.62663130     2.95443942     5.83678694       region=surface
     23     Pt    12.01256059     5.35493937     5.83678694       region=surface
     24     Pt    13.39848987     7.75543932     5.83678694       region=surface
     25     Pt     2.31105556     1.35410612     3.57357389       region=surface
     26     Pt     3.69698485     3.75460607     3.57357389       region=surface
     27     Pt     5.08291414     6.15510602     3.57357389       region=surface
     28     Pt     5.08291414     1.35410612     3.57357389       region=surface
     29     Pt     6.46884343     3.75460607     3.57357389       region=surface
     30     Pt     7.85477272     6.15510602     3.57357389       region=surface
     31     Pt     7.85477272     1.35410612     3.57357389       region=surface
     32     Pt     9.24070201     3.75460607     3.57357389       region=surface
     33     Pt    10.62663130     6.15510602     3.57357389       region=surface
     34     Pt     3.69698485     2.15427277     1.31036083       region=surface
     35     Pt     5.08291414     4.55477272     1.31036083       region=surface
     36     Pt     6.46884343     6.95527267     1.31036083       region=surface
     37     Pt     6.46884343     2.15427277     1.31036083       region=surface
     38     Pt     7.85477272     4.55477272     1.31036083       region=surface

Lattice vectors (angstrom)
      1     8.31557575     0.00000000     0.00000000
      2     4.15778787     7.20149984     0.00000000

Unit cell area (angstrom^2)        59.88462

Total System Charge             0.00000


Geometry at FIRE step 7:

--------
Geometry
--------
Formula: COPt36
Atoms
  Index Symbol   x (angstrom)   y (angstrom)   z (angstrom)
      1      C     5.08347591     2.95547165     9.52493570       region=adsorbate
      2      O     5.08418327     2.95697492    10.74450033       region=adsorbate
      3     Pt     9.24070201     6.95527267     1.31036083       region=surface
      4     Pt     9.24070201     2.15427277     1.31036083       region=surface
      5     Pt    10.62663130     4.55477272     1.31036083       region=surface
      6     Pt    12.01256059     6.95527267     1.31036083       region=surface
      7     Pt     3.69698485     2.15427277     8.10000000       region=surface
      8     Pt     5.08291414     4.55477272     8.10000000       region=surface
      9     Pt     6.46884343     6.95527267     8.10000000       region=surface
     10     Pt     6.46884343     2.15427277     8.10000000       region=surface
     11     Pt     7.85477272     4.55477272     8.10000000       region=surface
     12     Pt     9.24070201     6.95527267     8.10000000       region=surface
     13     Pt     9.24070201     2.15427277     8.10000000       region=surface
     14     Pt    10.62663130     4.55477272     8.10000000       region=surface
     15     Pt    12.01256059     6.95527267     8.10000000       region=surface
     16     Pt     5.08291414     2.95443942     5.83678694       region=surface
     17     Pt     6.46884343     5.35493937     5.83678694       region=surface
     18     Pt     7.85477272     7.75543932     5.83678694       region=surface
     19     Pt     7.85477272     2.95443942     5.83678694       region=surface
     20     Pt     9.24070201     5.35493937     5.83678694       region=surface
     21     Pt    10.62663130     7.75543932     5.83678694       region=surface
     22     Pt    10.62663130     2.95443942     5.83678694       region=surface
     23     Pt    12.01256059     5.35493937     5.83678694       region=surface
     24     Pt    13.39848987     7.75543932     5.83678694       region=surface
     25     Pt     2.31105556     1.35410612     3.57357389       region=surface
     26     Pt     3.69698485     3.75460607     3.57357389       region=surface
     27     Pt     5.08291414     6.15510602     3.57357389       region=surface
     28     Pt     5.08291414     1.35410612     3.57357389       region=surface
     29     Pt     6.46884343     3.75460607     3.57357389       region=surface
     30     Pt     7.85477272     6.15510602     3.57357389       region=surface
     31     Pt     7.85477272     1.35410612     3.57357389       region=surface
     32     Pt     9.24070201     3.75460607     3.57357389       region=surface
     33     Pt    10.62663130     6.15510602     3.57357389       region=surface
     34     Pt     3.69698485     2.15427277     1.31036083       region=surface
     35     Pt     5.08291414     4.55477272     1.31036083       region=surface
     36     Pt     6.46884343     6.95527267     1.31036083       region=surface
     37     Pt     6.46884343     2.15427277     1.31036083       region=surface
     38     Pt     7.85477272     4.55477272     1.31036083       region=surface

Lattice vectors (angstrom)
      1     8.31557575     0.00000000     0.00000000
      2     4.15778787     7.20149984     0.00000000

Unit cell area (angstrom^2)        59.88462

Total System Charge             0.00000


Geometry at FIRE step 8:

--------
Geometry
--------
Formula: COPt36
Atoms
  Index Symbol   x (angstrom)   y (angstrom)   z (angstrom)
      1      C     5.08346828     2.95546187     9.52491785       region=adsorbate
      2      O     5.08417599     2.95695844    10.74447500       region=adsorbate
      3     Pt     9.24070201     6.95527267     1.31036083       region=surface
      4     Pt     9.24070201     2.15427277     1.31036083       region=surface
      5     Pt    10.62663130     4.55477272     1.31036083       region=surface
      6     Pt    12.01256059     6.95527267     1.31036083       region=surface
      7     Pt     3.69698485     2.15427277     8.10000000       region=surface
      8     Pt     5.08291414     4.55477272     8.10000000       region=surface
      9     Pt     6.46884343     6.95527267     8.10000000       region=surface
     10     Pt     6.46884343     2.15427277     8.10000000       region=surface
     11     Pt     7.85477272     4.55477272     8.10000000       region=surface
     12     Pt     9.24070201     6.95527267     8.10000000       region=surface
     13     Pt     9.24070201     2.15427277     8.10000000       region=surface
     14     Pt    10.62663130     4.55477272     8.10000000       region=surface
     15     Pt    12.01256059     6.95527267     8.10000000       region=surface
     16     Pt     5.08291414     2.95443942     5.83678694       region=surface
     17     Pt     6.46884343     5.35493937     5.83678694       region=surface
     18     Pt     7.85477272     7.75543932     5.83678694       region=surface
     19     Pt     7.85477272     2.95443942     5.83678694       region=surface
     20     Pt     9.24070201     5.35493937     5.83678694       region=surface
     21     Pt    10.62663130     7.75543932     5.83678694       region=surface
     22     Pt    10.62663130     2.95443942     5.83678694       region=surface
     23     Pt    12.01256059     5.35493937     5.83678694       region=surface
     24     Pt    13.39848987     7.75543932     5.83678694       region=surface
     25     Pt     2.31105556     1.35410612     3.57357389       region=surface
     26     Pt     3.69698485     3.75460607     3.57357389       region=surface
     27     Pt     5.08291414     6.15510602     3.57357389       region=surface
     28     Pt     5.08291414     1.35410612     3.57357389       region=surface
     29     Pt     6.46884343     3.75460607     3.57357389       region=surface
     30     Pt     7.85477272     6.15510602     3.57357389       region=surface
     31     Pt     7.85477272     1.35410612     3.57357389       region=surface
     32     Pt     9.24070201     3.75460607     3.57357389       region=surface
     33     Pt    10.62663130     6.15510602     3.57357389       region=surface
     34     Pt     3.69698485     2.15427277     1.31036083       region=surface
     35     Pt     5.08291414     4.55477272     1.31036083       region=surface
     36     Pt     6.46884343     6.95527267     1.31036083       region=surface
     37     Pt     6.46884343     2.15427277     1.31036083       region=surface
     38     Pt     7.85477272     4.55477272     1.31036083       region=surface

Lattice vectors (angstrom)
      1     8.31557575     0.00000000     0.00000000
      2     4.15778787     7.20149984     0.00000000

Unit cell area (angstrom^2)        59.88462

Total System Charge             0.00000


Geometry at FIRE step 9:

--------
Geometry
--------
Formula: COPt36
Atoms
  Index Symbol   x (angstrom)   y (angstrom)   z (angstrom)
      1      C     5.08345856     2.95544933     9.52489370       region=adsorbate
      2      O     5.08416650     2.95693708    10.74444716       region=adsorbate
      3     Pt     9.24070201     6.95527267     1.31036083       region=surface
      4     Pt     9.24070201     2.15427277     1.31036083       region=surface
      5     Pt    10.62663130     4.55477272     1.31036083       region=surface
      6     Pt    12.01256059     6.95527267     1.31036083       region=surface
      7     Pt     3.69698485     2.15427277     8.10000000       region=surface
      8     Pt     5.08291414     4.55477272     8.10000000       region=surface
      9     Pt     6.46884343     6.95527267     8.10000000       region=surface
     10     Pt     6.46884343     2.15427277     8.10000000       region=surface
     11     Pt     7.85477272     4.55477272     8.10000000       region=surface
     12     Pt     9.24070201     6.95527267     8.10000000       region=surface
     13     Pt     9.24070201     2.15427277     8.10000000       region=surface
     14     Pt    10.62663130     4.55477272     8.10000000       region=surface
     15     Pt    12.01256059     6.95527267     8.10000000       region=surface
     16     Pt     5.08291414     2.95443942     5.83678694       region=surface
     17     Pt     6.46884343     5.35493937     5.83678694       region=surface
     18     Pt     7.85477272     7.75543932     5.83678694       region=surface
     19     Pt     7.85477272     2.95443942     5.83678694       region=surface
     20     Pt     9.24070201     5.35493937     5.83678694       region=surface
     21     Pt    10.62663130     7.75543932     5.83678694       region=surface
     22     Pt    10.62663130     2.95443942     5.83678694       region=surface
     23     Pt    12.01256059     5.35493937     5.83678694       region=surface
     24     Pt    13.39848987     7.75543932     5.83678694       region=surface
     25     Pt     2.31105556     1.35410612     3.57357389       region=surface
     26     Pt     3.69698485     3.75460607     3.57357389       region=surface
     27     Pt     5.08291414     6.15510602     3.57357389       region=surface
     28     Pt     5.08291414     1.35410612     3.57357389       region=surface
     29     Pt     6.46884343     3.75460607     3.57357389       region=surface
     30     Pt     7.85477272     6.15510602     3.57357389       region=surface
     31     Pt     7.85477272     1.35410612     3.57357389       region=surface
     32     Pt     9.24070201     3.75460607     3.57357389       region=surface
     33     Pt    10.62663130     6.15510602     3.57357389       region=surface
     34     Pt     3.69698485     2.15427277     1.31036083       region=surface
     35     Pt     5.08291414     4.55477272     1.31036083       region=surface
     36     Pt     6.46884343     6.95527267     1.31036083       region=surface
     37     Pt     6.46884343     2.15427277     1.31036083       region=surface
     38     Pt     7.85477272     4.55477272     1.31036083       region=surface

Lattice vectors (angstrom)
      1     8.31557575     0.00000000     0.00000000
      2     4.15778787     7.20149984     0.00000000

Unit cell area (angstrom^2)        59.88462

Total System Charge             0.00000


Geometry at FIRE step 10:

--------
Geometry
--------
Formula: COPt36
Atoms
  Index Symbol   x (angstrom)   y (angstrom)   z (angstrom)
      1      C     5.08344641     2.95543348     9.52486192       region=adsorbate
      2      O     5.08415425     2.95690968    10.74441858       region=adsorbate
      3     Pt     9.24070201     6.95527267     1.31036083       region=surface
      4     Pt     9.24070201     2.15427277     1.31036083       region=surface
      5     Pt    10.62663130     4.55477272     1.31036083       region=surface
      6     Pt    12.01256059     6.95527267     1.31036083       region=surface
      7     Pt     3.69698485     2.15427277     8.10000000       region=surface
      8     Pt     5.08291414     4.55477272     8.10000000       region=surface
      9     Pt     6.46884343     6.95527267     8.10000000       region=surface
     10     Pt     6.46884343     2.15427277     8.10000000       region=surface
     11     Pt     7.85477272     4.55477272     8.10000000       region=surface
     12     Pt     9.24070201     6.95527267     8.10000000       region=surface
     13     Pt     9.24070201     2.15427277     8.10000000       region=surface
     14     Pt    10.62663130     4.55477272     8.10000000       region=surface
     15     Pt    12.01256059     6.95527267     8.10000000       region=surface
     16     Pt     5.08291414     2.95443942     5.83678694       region=surface
     17     Pt     6.46884343     5.35493937     5.83678694       region=surface
     18     Pt     7.85477272     7.75543932     5.83678694       region=surface
     19     Pt     7.85477272     2.95443942     5.83678694       region=surface
     20     Pt     9.24070201     5.35493937     5.83678694       region=surface
     21     Pt    10.62663130     7.75543932     5.83678694       region=surface
     22     Pt    10.62663130     2.95443942     5.83678694       region=surface
     23     Pt    12.01256059     5.35493937     5.83678694       region=surface
     24     Pt    13.39848987     7.75543932     5.83678694       region=surface
     25     Pt     2.31105556     1.35410612     3.57357389       region=surface
     26     Pt     3.69698485     3.75460607     3.57357389       region=surface
     27     Pt     5.08291414     6.15510602     3.57357389       region=surface
     28     Pt     5.08291414     1.35410612     3.57357389       region=surface
     29     Pt     6.46884343     3.75460607     3.57357389       region=surface
     30     Pt     7.85477272     6.15510602     3.57357389       region=surface
     31     Pt     7.85477272     1.35410612     3.57357389       region=surface
     32     Pt     9.24070201     3.75460607     3.57357389       region=surface
     33     Pt    10.62663130     6.15510602     3.57357389       region=surface
     34     Pt     3.69698485     2.15427277     1.31036083       region=surface
     35     Pt     5.08291414     4.55477272     1.31036083       region=surface
     36     Pt     6.46884343     6.95527267     1.31036083       region=surface
     37     Pt     6.46884343     2.15427277     1.31036083       region=surface
     38     Pt     7.85477272     4.55477272     1.31036083       region=surface

Lattice vectors (angstrom)
      1     8.31557575     0.00000000     0.00000000
      2     4.15778787     7.20149984     0.00000000

Unit cell area (angstrom^2)        59.88462

Total System Charge             0.00000

Geometry optimization converged

Optimized geometry:

--------
Geometry
--------
Formula: COPt36
Atoms
  Index Symbol   x (angstrom)   y (angstrom)   z (angstrom)
      1      C     5.08344641     2.95543348     9.52486192       region=adsorbate
      2      O     5.08415425     2.95690968    10.74441858       region=adsorbate
      3     Pt     9.24070201     6.95527267     1.31036083       region=surface
      4     Pt     9.24070201     2.15427277     1.31036083       region=surface
      5     Pt    10.62663130     4.55477272     1.31036083       region=surface
      6     Pt    12.01256059     6.95527267     1.31036083       region=surface
      7     Pt     3.69698485     2.15427277     8.10000000       region=surface
      8     Pt     5.08291414     4.55477272     8.10000000       region=surface
      9     Pt     6.46884343     6.95527267     8.10000000       region=surface
     10     Pt     6.46884343     2.15427277     8.10000000       region=surface
     11     Pt     7.85477272     4.55477272     8.10000000       region=surface
     12     Pt     9.24070201     6.95527267     8.10000000       region=surface
     13     Pt     9.24070201     2.15427277     8.10000000       region=surface
     14     Pt    10.62663130     4.55477272     8.10000000       region=surface
     15     Pt    12.01256059     6.95527267     8.10000000       region=surface
     16     Pt     5.08291414     2.95443942     5.83678694       region=surface
     17     Pt     6.46884343     5.35493937     5.83678694       region=surface
     18     Pt     7.85477272     7.75543932     5.83678694       region=surface
     19     Pt     7.85477272     2.95443942     5.83678694       region=surface
     20     Pt     9.24070201     5.35493937     5.83678694       region=surface
     21     Pt    10.62663130     7.75543932     5.83678694       region=surface
     22     Pt    10.62663130     2.95443942     5.83678694       region=surface
     23     Pt    12.01256059     5.35493937     5.83678694       region=surface
     24     Pt    13.39848987     7.75543932     5.83678694       region=surface
     25     Pt     2.31105556     1.35410612     3.57357389       region=surface
     26     Pt     3.69698485     3.75460607     3.57357389       region=surface
     27     Pt     5.08291414     6.15510602     3.57357389       region=surface
     28     Pt     5.08291414     1.35410612     3.57357389       region=surface
     29     Pt     6.46884343     3.75460607     3.57357389       region=surface
     30     Pt     7.85477272     6.15510602     3.57357389       region=surface
     31     Pt     7.85477272     1.35410612     3.57357389       region=surface
     32     Pt     9.24070201     3.75460607     3.57357389       region=surface
     33     Pt    10.62663130     6.15510602     3.57357389       region=surface
     34     Pt     3.69698485     2.15427277     1.31036083       region=surface
     35     Pt     5.08291414     4.55477272     1.31036083       region=surface
     36     Pt     6.46884343     6.95527267     1.31036083       region=surface
     37     Pt     6.46884343     2.15427277     1.31036083       region=surface
     38     Pt     7.85477272     4.55477272     1.31036083       region=surface

Lattice vectors (angstrom)
      1     8.31557575     0.00000000     0.00000000
      2     4.15778787     7.20149984     0.00000000

Unit cell area (angstrom^2)        59.88462

Total System Charge             0.00000


Reference geometry:
   Note: All states are going to be aligned with this reference

--------
Geometry
--------
Formula: Pt36
Atoms
  Index Symbol   x (angstrom)   y (angstrom)   z (angstrom)
      1     Pt     9.24070201     6.95527267     1.31036083       region=surface
      2     Pt     9.24070201     2.15427277     1.31036083       region=surface
      3     Pt    10.62663130     4.55477272     1.31036083       region=surface
      4     Pt    12.01256059     6.95527267     1.31036083       region=surface
      5     Pt     3.69698485     2.15427277     8.10000000       region=surface
      6     Pt     5.08291414     4.55477272     8.10000000       region=surface
      7     Pt     6.46884343     6.95527267     8.10000000       region=surface
      8     Pt     6.46884343     2.15427277     8.10000000       region=surface
      9     Pt     7.85477272     4.55477272     8.10000000       region=surface
     10     Pt     9.24070201     6.95527267     8.10000000       region=surface
     11     Pt     9.24070201     2.15427277     8.10000000       region=surface
     12     Pt    10.62663130     4.55477272     8.10000000       region=surface
     13     Pt    12.01256059     6.95527267     8.10000000       region=surface
     14     Pt     5.08291414     2.95443942     5.83678694       region=surface
     15     Pt     6.46884343     5.35493937     5.83678694       region=surface
     16     Pt     7.85477272     7.75543932     5.83678694       region=surface
     17     Pt     7.85477272     2.95443942     5.83678694       region=surface
     18     Pt     9.24070201     5.35493937     5.83678694       region=surface
     19     Pt    10.62663130     7.75543932     5.83678694       region=surface
     20     Pt    10.62663130     2.95443942     5.83678694       region=surface
     21     Pt    12.01256059     5.35493937     5.83678694       region=surface
     22     Pt    13.39848987     7.75543932     5.83678694       region=surface
     23     Pt     2.31105556     1.35410612     3.57357389       region=surface
     24     Pt     3.69698485     3.75460607     3.57357389       region=surface
     25     Pt     5.08291414     6.15510602     3.57357389       region=surface
     26     Pt     5.08291414     1.35410612     3.57357389       region=surface
     27     Pt     6.46884343     3.75460607     3.57357389       region=surface
     28     Pt     7.85477272     6.15510602     3.57357389       region=surface
     29     Pt     7.85477272     1.35410612     3.57357389       region=surface
     30     Pt     9.24070201     3.75460607     3.57357389       region=surface
     31     Pt    10.62663130     6.15510602     3.57357389       region=surface
     32     Pt     3.69698485     2.15427277     1.31036083       region=surface
     33     Pt     5.08291414     4.55477272     1.31036083       region=surface
     34     Pt     6.46884343     6.95527267     1.31036083       region=surface
     35     Pt     6.46884343     2.15427277     1.31036083       region=surface
     36     Pt     7.85477272     4.55477272     1.31036083       region=surface

Lattice vectors (angstrom)
      1     8.31557575     0.00000000     0.00000000
      2     4.15778787     7.20149984     0.00000000

Unit cell area (angstrom^2)        59.88462

Total System Charge             0.00000

        0.0    1   NEW_MIN       1
------------------------
Initial Energy Landscape
------------------------

        Id        Energy(a.u.)         RE(eV)   RE(kcal/mol)    Counts    Crit. point
     --------------------------------------------------------------------------------
         1           -7.651572        0.00000         0.0000         1            Min

Number of configurations                             1
Number of local minima                               1
Number of transition states                          0
Energy range (a.u.)                           0.000000
Energy range (eV)                              0.00000
Energy range (kcal/mol)                         0.0000

Configurations
--------------
38
Id 1 Energy(hartree)     -7.65157184 Min
 C        5.08344640664052       2.95543347565104       9.52486191606724
 O        5.08415425270694       2.95690968247300      10.74441858035259
 Pt       9.24070201000001       6.95527267000000       1.31036083000002
 Pt       9.24070201000001       2.15427277000000       1.31036083000002
 Pt      10.62663130000000       4.55477272000000       1.31036083000002
 Pt      12.01256059000000       6.95527267000000       1.31036083000002
 Pt       3.69698485000000       2.15427277000000       8.10000000000002
 Pt       5.08291414000000       4.55477272000000       8.10000000000002
 Pt       6.46884343000000       6.95527267000000       8.10000000000002
 Pt       6.46884343000000       2.15427277000000       8.10000000000002
 Pt       7.85477272000000       4.55477272000000       8.10000000000002
 Pt       9.24070201000001       6.95527267000000       8.10000000000002
 Pt       9.24070201000001       2.15427277000000       8.10000000000002
 Pt      10.62663130000000       4.55477272000000       8.10000000000002
 Pt      12.01256059000000       6.95527267000000       8.10000000000002
 Pt       5.08291414000000       2.95443942000000       5.83678694000002
 Pt       6.46884343000000       5.35493937000000       5.83678694000002
 Pt       7.85477272000000       7.75543932000000       5.83678694000002
 Pt       7.85477272000000       2.95443942000000       5.83678694000002
 Pt       9.24070201000001       5.35493937000000       5.83678694000002
 Pt      10.62663130000000       7.75543932000000       5.83678694000002
 Pt      10.62663130000001       2.95443942000000       5.83678694000002
 Pt      12.01256059000000       5.35493937000000       5.83678694000002
 Pt      13.39848987000001       7.75543932000000       5.83678694000002
 Pt       2.31105556000000       1.35410612000000       3.57357389000002
 Pt       3.69698485000000       3.75460607000000       3.57357389000002
 Pt       5.08291414000000       6.15510602000000       3.57357389000002
 Pt       5.08291414000000       1.35410612000000       3.57357389000002
 Pt       6.46884343000000       3.75460607000000       3.57357389000002
 Pt       7.85477272000000       6.15510602000000       3.57357389000002
 Pt       7.85477272000000       1.35410612000000       3.57357389000002
 Pt       9.24070201000001       3.75460607000000       3.57357389000002
 Pt      10.62663130000001       6.15510602000000       3.57357389000002
 Pt       3.69698485000000       2.15427277000000       1.31036083000002
 Pt       5.08291414000000       4.55477272000000       1.31036083000002
 Pt       6.46884343000000       6.95527267000000       1.31036083000002
 Pt       6.46884343000000       2.15427277000000       1.31036083000002
 Pt       7.85477272000000       4.55477272000000       1.31036083000002
VEC1       8.31557575000000       0.00000000000000       0.00000000000000
VEC2       4.15778787000000       7.20149984000000       0.00000000000000
 
Saving database on KF file ... OK
 

       *******************************
       *  Automated PES exploration  *
       *******************************

--------------------------
PES Exploration Parameters
--------------------------

Exploring 6 degrees of freedom

SeedStates                                1

RandomSeed                                         100
Temperature                                  300.00000
FiniteDifference                               0.00265
WriteHistory                                 converged
NumExpeditions                                      10
NumExplorers                                         4
DynamicSeedStates                                    T
GenerateSymmetryImages                               F

   ProcessSearch
   -------------
   MinimizeFirst                                     T
   MinimizationOffset                          0.20000

   SaddleSearch
   ------------
   MaxIterations                                   400
   Method                                     min_mode
   MinModeMethod                                 dimer
   MinEnergyBarrier                            0.02000
   MaxEnergy                                   4.00000
   DisplaceMagnitude                           0.10000
   DisplaceRadius                              4.00000
   RemoveRotation                                    F
   RelaxFromSaddlePoint                              F
   DisplaceMinNorm                             0.00000
   RandomMode                                        T
   DisplaceRandomWeight                        0.00000
   DisplaceListedAtomWeight                    0.00000
   DisplaceListedTypeWeight                    0.00000
   DisplaceUnderCoordinatedWeight              0.00000
   DisplaceLeastCoordinatedWeight              0.00000
   DisplaceNotFCCHCPWeight                     0.00000
   DisplaceNotTCPBCCWeight                     0.00000
   DisplaceNotTCPWeight                        0.00000
   DisplaceWaterWeight                         0.00000
   DisplaceAlongNormalModesWeight              0.00000
   DispListedAtoms                                    
   DispListedTypes                                    
   DisplaceAllAtoms                                  F
   DisplaceAllListed                                 F
   DisplaceMaxCoordination                          11

   Prefactor
   ---------
   Rate                                           htst

      Optimizer
      ---------
      Method                                        cg
      MaxIterations                                400
      ConvergedForce                           0.00500
      MaxMove                                  0.20000
      TimeStep                                 1.00000
      MaxTimeStep                              2.50000
         
         CG (Conjugate Gradient)
         -----------------------
         NoOvershooting                              F
         KnockOutMaxMove                             F
         LineConverged                         0.10000
         LineSearch                                  F
         MaxIterBeforeReset                          0
         LineSearchMaxIter                          10
   
   StructureComparison
   -------------------
   DistanceDifference                          0.20000
   NeighborCutoff                              2.40000
   CheckRotation                                     F
   IndistinguishableAtoms                            T
   CheckSymmetry                                     T
   EnergyDifference                            0.05000
   RemoveTranslation                                 F
   
   StatesAlignment
   ---------------
   ReferenceRegion                             surface
   RemoveUnaligned                                   F
   DistanceDifference                          0.20000

   BindingSites
   ------------
   Calculate                                         T
   DistanceDifference                          0.50000
   NeighborCutoff                              3.80000

--------
Geometry
--------
Formula: COPt36
Atoms
  Index Symbol   x (angstrom)   y (angstrom)   z (angstrom)
      1      C     5.08344641     2.95543348     9.52486192       region=adsorbate
      2      O     5.08415425     2.95690968    10.74441858       region=adsorbate
      3     Pt     9.24070201     6.95527267     1.31036083       region=surface
      4     Pt     9.24070201     2.15427277     1.31036083       region=surface
      5     Pt    10.62663130     4.55477272     1.31036083       region=surface
      6     Pt    12.01256059     6.95527267     1.31036083       region=surface
      7     Pt     3.69698485     2.15427277     8.10000000       region=surface
      8     Pt     5.08291414     4.55477272     8.10000000       region=surface
      9     Pt     6.46884343     6.95527267     8.10000000       region=surface
     10     Pt     6.46884343     2.15427277     8.10000000       region=surface
     11     Pt     7.85477272     4.55477272     8.10000000       region=surface
     12     Pt     9.24070201     6.95527267     8.10000000       region=surface
     13     Pt     9.24070201     2.15427277     8.10000000       region=surface
     14     Pt    10.62663130     4.55477272     8.10000000       region=surface
     15     Pt    12.01256059     6.95527267     8.10000000       region=surface
     16     Pt     5.08291414     2.95443942     5.83678694       region=surface
     17     Pt     6.46884343     5.35493937     5.83678694       region=surface
     18     Pt     7.85477272     7.75543932     5.83678694       region=surface
     19     Pt     7.85477272     2.95443942     5.83678694       region=surface
     20     Pt     9.24070201     5.35493937     5.83678694       region=surface
     21     Pt    10.62663130     7.75543932     5.83678694       region=surface
     22     Pt    10.62663130     2.95443942     5.83678694       region=surface
     23     Pt    12.01256059     5.35493937     5.83678694       region=surface
     24     Pt    13.39848987     7.75543932     5.83678694       region=surface
     25     Pt     2.31105556     1.35410612     3.57357389       region=surface
     26     Pt     3.69698485     3.75460607     3.57357389       region=surface
     27     Pt     5.08291414     6.15510602     3.57357389       region=surface
     28     Pt     5.08291414     1.35410612     3.57357389       region=surface
     29     Pt     6.46884343     3.75460607     3.57357389       region=surface
     30     Pt     7.85477272     6.15510602     3.57357389       region=surface
     31     Pt     7.85477272     1.35410612     3.57357389       region=surface
     32     Pt     9.24070201     3.75460607     3.57357389       region=surface
     33     Pt    10.62663130     6.15510602     3.57357389       region=surface
     34     Pt     3.69698485     2.15427277     1.31036083       region=surface
     35     Pt     5.08291414     4.55477272     1.31036083       region=surface
     36     Pt     6.46884343     6.95527267     1.31036083       region=surface
     37     Pt     6.46884343     2.15427277     1.31036083       region=surface
     38     Pt     7.85477272     4.55477272     1.31036083       region=surface

Lattice vectors (angstrom)
      1     8.31557575     0.00000000     0.00000000
      2     4.15778787     7.20149984     0.00000000

Unit cell area (angstrom^2)        59.88462

Total System Charge             0.00000


---------------------------
ReaxFF Engine configuration
---------------------------
Bond order cutoff                      0.001000
Force field                            CHONSFPtClNi.ff
Furman torsions                        F
Nonreactive                            F
Taper bond orders                      F
Torsion version                        original


---------------
PES Exploration
---------------
Number of expeditions:    10
Number of explorers:     4

========================
Starting expedition 1/10
========================

----------------
Energy Landscape
----------------

        Id        Energy(a.u.)         RE(eV)   RE(kcal/mol)    Counts    Crit. point
     --------------------------------------------------------------------------------
         1           -7.651572        0.00000         0.0000         1            Min

Number of configurations                             1
Number of local minima                               1
Number of transition states                          0
Energy range (a.u.)                           0.000000
Energy range (eV)                              0.00000
Energy range (kcal/mol)                         0.0000

> PES explorer-1.1: RUN (seedState=1,rndSeed=100)
> PES explorer-1.1: END

PES explorer 1.1
----------------
(Energies in eV and lengths in Angstrom)

Minimizing initial structure
[Matter]       Iter       Step size      Max atom force         Energy
[Matter]          0     0.00000e+00         3.22513e-03     -208.20986
[Matter]          0     0.00000e+00         3.22513e-03     -208.20986
Saddle point search started from reactant with energy -208.209864 eV.
[Dimer]       Step   Step Size      Delta E       Max atom force   Curvature    Torque    Angle   Rots
[Dimer]          1   0.0192763       0.0984          3.55378e+00    -25.8305    10.934    0.726      3
[Dimer]          2   0.0140150       0.0841          1.28625e+00     -0.4409    17.964    1.461      2
[Dimer]          3   0.2000000       0.3763          7.05014e+00      3.6493    13.629    1.524      2
[Dimer]          4   0.2000000       0.4782          4.60688e+00      4.4220     3.681    1.796      3
[Dimer]          5   0.2000000       0.7518          5.75627e+00      3.1211     9.656    1.006      2
[Dimer]          6   0.2000000       1.2197          7.25754e+00      5.2711    10.967    1.137      1
[Dimer]          7   0.2000000       2.0588          2.10846e+01      6.7309     2.401    3.265      2
[Dimer]          8   0.0666228       4.0602          4.65285e+01   -444.8472    79.771    4.995      2
[Saddle Search] Final status: Barrier too high

Results:

    potential energy saddle            -2.041496906673e+02 eV
    barrier reactant to product        0.000000000000e+00
    force calls minimization           1
    random seed                        100
    potential energy product           -2.082098636146e+02 eV
    barrier product to reactant        0.000000000000e+00
    total force calls                  43
    force calls saddle                 42
    displacement saddle distance       0.000000000000e+00
    termination reason                 3
    potential energy reactant          -2.082098636146e+02 eV

PES explorer 1.2
----------------
(Energies in eV and lengths in Angstrom)

Minimizing initial structure
[Matter]       Iter       Step size      Max atom force         Energy
[Matter]          0     0.00000e+00         3.22513e-03     -208.20986
[Matter]          0     0.00000e+00         3.22513e-03     -208.20986
Saddle point search started from reactant with energy -208.209864 eV.
[Dimer]       Step   Step Size      Delta E       Max atom force   Curvature    Torque    Angle   Rots
[Dimer]          1   0.2000000       2.4309          2.51267e+01      2.1721    20.121    3.025      3
[Dimer]          2   0.2000000       2.8145          2.59331e+01      2.4126     7.860    0.431      1
[Dimer]          3   0.2000000       3.4004          2.67920e+01      9.0004    21.081    4.385      2
[Dimer]          4   0.2000000       4.2402          2.72135e+01      4.8199     4.054    4.571      5
[Saddle Search] Final status: Barrier too high

Results:

    potential energy saddle            -2.039696176154e+02 eV
    barrier reactant to product        0.000000000000e+00
    force calls minimization           1
    random seed                        101
    potential energy product           -2.082098636146e+02 eV
    barrier product to reactant        0.000000000000e+00
    total force calls                  25
    force calls saddle                 24
    displacement saddle distance       0.000000000000e+00
    termination reason                 3
    potential energy reactant          -2.082098636146e+02 eV

PES explorer 1.3
----------------
(Energies in eV and lengths in Angstrom)

Minimizing initial structure
[Matter]       Iter       Step size      Max atom force         Energy
[Matter]          0     0.00000e+00         3.22513e-03     -208.20986
[Matter]          0     0.00000e+00         3.22513e-03     -208.20986
Saddle point search started from reactant with energy -208.209864 eV.
[Dimer]       Step   Step Size      Delta E       Max atom force   Curvature    Torque    Angle   Rots
[Dimer]          1   0.0888894       0.6188          1.09229e+01    -37.3191    12.406    1.830      3
[Dimer]          2   0.2000000       0.9485          1.26558e+01      3.1506     5.376    1.982      4
[Dimer]          3   0.2000000       0.7837          8.63952e+00      2.4618     3.833    3.039      3
[Dimer]          4   0.2000000       1.0777          8.99337e+00      5.2766     4.687    2.037      5
[Dimer]          5   0.2000000       1.5604          9.17666e+00      5.9723     5.535    1.797      1
[Dimer]          6   0.2000000       2.2390          9.27934e+00      8.0801     4.842    4.287      3
[Dimer]          7   0.2000000       3.2316          1.76693e+01      7.1901    12.737    2.250      1
[Dimer]          8   0.2000000       4.1883          2.33774e+01     18.2790    30.683    1.007      2
[Saddle Search] Final status: Barrier too high

Results:

    potential energy saddle            -2.040215459873e+02 eV
    barrier reactant to product        0.000000000000e+00
    force calls minimization           1
    random seed                        102
    potential energy product           -2.082098636146e+02 eV
    barrier product to reactant        0.000000000000e+00
    total force calls                  48
    force calls saddle                 47
    displacement saddle distance       0.000000000000e+00
    termination reason                 3
    potential energy reactant          -2.082098636146e+02 eV

PES explorer 1.4
----------------
(Energies in eV and lengths in Angstrom)

Minimizing initial structure
[Matter]       Iter       Step size      Max atom force         Energy
[Matter]          0     0.00000e+00         3.22513e-03     -208.20986
[Matter]          0     0.00000e+00         3.22513e-03     -208.20986
Saddle point search started from reactant with energy -208.209864 eV.
[Dimer]       Step   Step Size      Delta E       Max atom force   Curvature    Torque    Angle   Rots
[Dimer]          1   0.2000000       0.1889          4.32877e+00      2.2615     1.481    2.102      3
[Dimer]          2   0.2000000       0.3859          5.57344e+00      2.9327     3.142    1.625      1
[Dimer]          3   0.2000000       0.7300          6.15982e+00      4.3224     6.768    1.674      1
[Dimer]          4   0.2000000       1.2568          7.11703e+00      5.6539    19.167    2.898      2
[Dimer]          5   0.2000000       1.8095          7.84859e+00      7.0464     3.445    0.625      4
[Dimer]          6   0.2000000       2.6950          7.70768e+00      8.7240     3.288    0.911      1
[Dimer]          7   0.2000000       3.9035          8.90319e+00      7.3473    12.946    1.218      1
[Dimer]          8   0.2000000       5.3372          1.58576e+01     12.0241     3.996    4.452      3
[Saddle Search] Final status: Barrier too high

Results:

    potential energy saddle            -2.028726488027e+02 eV
    barrier reactant to product        0.000000000000e+00
    force calls minimization           1
    random seed                        103
    potential energy product           -2.082098636146e+02 eV
    barrier product to reactant        0.000000000000e+00
    total force calls                  42
    force calls saddle                 41
    displacement saddle distance       0.000000000000e+00
    termination reason                 3
    potential energy reactant          -2.082098636146e+02 eV
 
Saving database on KF file ... OK
 

========================
Starting expedition 2/10
========================

----------------
Energy Landscape
----------------

        Id        Energy(a.u.)         RE(eV)   RE(kcal/mol)    Counts    Crit. point
     --------------------------------------------------------------------------------
         1           -7.651572        0.00000         0.0000         1            Min

Number of configurations                             1
Number of local minima                               1
Number of transition states                          0
Energy range (a.u.)                           0.000000
Energy range (eV)                              0.00000
Energy range (kcal/mol)                         0.0000

> PES explorer-2.1: RUN (seedState=1,rndSeed=104)
> PES explorer-2.1: END

PES explorer 2.1
----------------
(Energies in eV and lengths in Angstrom)

Minimizing initial structure
[Matter]       Iter       Step size      Max atom force         Energy
[Matter]          0     0.00000e+00         3.22513e-03     -208.20986
[Matter]          0     0.00000e+00         3.22513e-03     -208.20986
Saddle point search started from reactant with energy -208.209864 eV.
[Dimer]       Step   Step Size      Delta E       Max atom force   Curvature    Torque    Angle   Rots
[Dimer]          1   0.2000000       0.0793          1.09859e+00      1.2238     5.466    1.771      6
[Dimer]          2   0.2000000       0.2338          3.30258e+00      2.2400    24.167    3.038      1
[Dimer]          3   0.2000000       0.5314          5.65949e+00      3.9619    23.517    3.143      1
[Dimer]          4   0.2000000       0.9945          7.16566e+00      5.6938    18.748    3.856      1
[Dimer]          5   0.2000000       1.4047          7.59920e+00      4.8092     6.053    1.162      2
[Dimer]          6   0.2000000       2.1328          6.92980e+00      7.9663    16.160    3.134      1
[Dimer]          7   0.0734068       2.5402          7.17533e+00    -50.0547     7.026    3.869      4
[Dimer]          8   0.1997192       4.3479          1.64417e+01    -20.7858     3.709    3.802      3
[Saddle Search] Final status: Barrier too high

Results:

    potential energy saddle            -2.038619476157e+02 eV
    barrier reactant to product        0.000000000000e+00
    force calls minimization           1
    random seed                        104
    potential energy product           -2.082098636146e+02 eV
    barrier product to reactant        0.000000000000e+00
    total force calls                  45
    force calls saddle                 44
    displacement saddle distance       0.000000000000e+00
    termination reason                 3
    potential energy reactant          -2.082098636146e+02 eV

PES explorer 2.2
----------------
(Energies in eV and lengths in Angstrom)

Minimizing initial structure
[Matter]       Iter       Step size      Max atom force         Energy
[Matter]          0     0.00000e+00         3.22513e-03     -208.20986
[Matter]          0     0.00000e+00         3.22513e-03     -208.20986
Saddle point search started from reactant with energy -208.209864 eV.
[Dimer]       Step   Step Size      Delta E       Max atom force   Curvature    Torque    Angle   Rots
[Dimer]          1   0.2000000       1.7790          1.32556e+01      4.6980     4.241    2.175      2
[Dimer]          2   0.2000000       1.9425          1.62301e+01      4.7129    24.625    3.976      1
[Dimer]          3   0.2000000       1.8335          6.38449e+00      4.5580    43.003    3.673      1
[Dimer]          4   0.0088783       1.8032          3.83631e+00     -1.9812    65.640    3.384      1
[Dimer]          5   0.2000000       2.6653          2.87448e+01      1.1834    36.052    1.766      1
[Dimer]          6   0.1809793       2.2430          3.65718e+01   -253.3702    21.118    2.382      1
[Dimer]          7   0.2000000       4.5319          4.20990e+01     18.4350    98.867    3.913      5
[Saddle Search] Final status: Barrier too high

Results:

    potential energy saddle            -2.036779387207e+02 eV
    barrier reactant to product        0.000000000000e+00
    force calls minimization           1
    random seed                        105
    potential energy product           -2.082098636146e+02 eV
    barrier product to reactant        0.000000000000e+00
    total force calls                  35
    force calls saddle                 34
    displacement saddle distance       0.000000000000e+00
    termination reason                 3
    potential energy reactant          -2.082098636146e+02 eV

PES explorer 2.3
----------------
(Energies in eV and lengths in Angstrom)

Minimizing initial structure
[Matter]       Iter       Step size      Max atom force         Energy
[Matter]          0     0.00000e+00         3.22513e-03     -208.20986
[Matter]          0     0.00000e+00         3.22513e-03     -208.20986
Saddle point search started from reactant with energy -208.209864 eV.
[Dimer]       Step   Step Size      Delta E       Max atom force   Curvature    Torque    Angle   Rots
[Dimer]          1   0.2748016       1.0850          3.06389e+01    -43.6108    13.889    3.473      4
[Dimer]          2   0.2436765       4.6330          2.03660e+01    -43.2462     4.481    2.912      2
[Saddle Search] Final status: Barrier too high

Results:

    potential energy saddle            -2.035769040308e+02 eV
    barrier reactant to product        0.000000000000e+00
    force calls minimization           1
    random seed                        106
    potential energy product           -2.082098636146e+02 eV
    barrier product to reactant        0.000000000000e+00
    total force calls                  14
    force calls saddle                 13
    displacement saddle distance       0.000000000000e+00
    termination reason                 3
    potential energy reactant          -2.082098636146e+02 eV

PES explorer 2.4
----------------
(Energies in eV and lengths in Angstrom)

Minimizing initial structure
[Matter]       Iter       Step size      Max atom force         Energy
[Matter]          0     0.00000e+00         3.22513e-03     -208.20986
[Matter]          0     0.00000e+00         3.22513e-03     -208.20986
Saddle point search started from reactant with energy -208.209864 eV.
[Dimer]       Step   Step Size      Delta E       Max atom force   Curvature    Torque    Angle   Rots
[Dimer]          1   0.0710654       6.4903          8.99296e+00   -395.3321     5.976    0.408      1
[Saddle Search] Final status: Barrier too high

Results:

    potential energy saddle            -2.017195438116e+02 eV
    barrier reactant to product        0.000000000000e+00
    force calls minimization           1
    random seed                        107
    potential energy product           -2.082098636146e+02 eV
    barrier product to reactant        0.000000000000e+00
    total force calls                  6
    force calls saddle                 5
    displacement saddle distance       0.000000000000e+00
    termination reason                 3
    potential energy reactant          -2.082098636146e+02 eV
 
Saving database on KF file ... OK
 

========================
Starting expedition 3/10
========================

----------------
Energy Landscape
----------------

        Id        Energy(a.u.)         RE(eV)   RE(kcal/mol)    Counts    Crit. point
     --------------------------------------------------------------------------------
         1           -7.651572        0.00000         0.0000         1            Min

Number of configurations                             1
Number of local minima                               1
Number of transition states                          0
Energy range (a.u.)                           0.000000
Energy range (eV)                              0.00000
Energy range (kcal/mol)                         0.0000

> PES explorer-3.1: RUN (seedState=1,rndSeed=108)
> PES explorer-3.1: END

PES explorer 3.1
----------------
(Energies in eV and lengths in Angstrom)

Minimizing initial structure
[Matter]       Iter       Step size      Max atom force         Energy
[Matter]          0     0.00000e+00         3.22513e-03     -208.20986
[Matter]          0     0.00000e+00         3.22513e-03     -208.20986
Saddle point search started from reactant with energy -208.209864 eV.
[Dimer]       Step   Step Size      Delta E       Max atom force   Curvature    Torque    Angle   Rots
[Dimer]          1   0.2000000       0.8896          1.11248e+01      1.6955     1.167    4.672      7
[Dimer]          2   0.2000000       1.1194          1.17213e+01      5.8332     1.376    1.191      4
[Dimer]          3   0.2000000       1.3800          1.21392e+01      4.6903     3.660    3.420      1
[Dimer]          4   0.2000000       1.5849          1.29834e+01      2.2079    16.197    3.359      1
[Dimer]          5   0.1500803       3.8497          4.03616e+01    -51.4091     0.881    0.490      3
[Dimer]          6   0.2000000       2.3817          1.76288e+01    -75.5015    10.703    3.956      1
[Dimer]          7   0.2000000       3.3283          2.69649e+01     37.4060    15.351    4.622      0
[Dimer]          8   0.0755995       1.5944          1.37242e+01     -2.7793     4.864    1.080      3
[Dimer]          9   0.1616134       4.1768          3.98972e+01     -1.7897     3.779    3.469      1
[Saddle Search] Final status: Barrier too high

Results:

    potential energy saddle            -2.040330577096e+02 eV
    barrier reactant to product        0.000000000000e+00
    force calls minimization           1
    random seed                        108
    potential energy product           -2.082098636146e+02 eV
    barrier product to reactant        0.000000000000e+00
    total force calls                  50
    force calls saddle                 49
    displacement saddle distance       0.000000000000e+00
    termination reason                 3
    potential energy reactant          -2.082098636146e+02 eV

PES explorer 3.2
----------------
(Energies in eV and lengths in Angstrom)

Minimizing initial structure
[Matter]       Iter       Step size      Max atom force         Energy
[Matter]          0     0.00000e+00         3.22513e-03     -208.20986
[Matter]          0     0.00000e+00         3.22513e-03     -208.20986
[...]

   Fragmented state: OLD

 
Saving database on KF file ... OK
 
Saving fragments on KF file ... OK
 
----------------------
Final Energy Landscape
----------------------

        Id        Energy(a.u.)         RE(eV)   RE(kcal/mol)    Counts    Crit. point
     --------------------------------------------------------------------------------
         1           -7.651642        0.00000         0.0000         1            Min
         2           -7.651572        0.00191         0.0441         1            Min
         3           -7.623823        0.75699        17.4566         1            Min
         4           -7.622547        0.79171        18.2573         8             TS 2<-->3       1.55E+13:2.23E+12*  
         5           -7.622431        0.79488        18.3304         3             TS 1<-->3       1.56E+13:2.22E+12   

*) Pre-exponential factors forward and backward in s^-1 or Hz

Number of configurations                             5
Number of local minima                               3
Number of transition states                          2
Energy range (a.u.)                           0.029211
Energy range (eV)                              0.79488
Energy range (kcal/mol)                        18.3304

Fragments
---------

Number of fragments                                  2

        Id             Formula        Energy(a.u.)              Region
     -----------------------------------------------------------------
         1                  CO           -0.424454              active
         2                Pt36           -7.154286             surface

Fragmented States
-----------------

Number of fragmented states                          1

        Id           Fragments        Energy(a.u.)         RE(eV)   RE(kcal/mol)
     ---------------------------------------------------------------------------
         1                 1,2           -7.578740        1.98377        45.7468 -->1         8.05E+06:1.66E+16*
                                                                                 -->2         8.05E+06:1.64E+16 
                                                                                 -->3         8.05E+06:2.37E+15 


*) Pre-exponential factors adsorption in (bar*s)^-1 and desorption in s^-1 or Hz

Configurations
--------------
38
Id 1 Energy(hartree)     -7.65164220 Min
 C        6.46808725090411       3.75416908534211       9.52300030452482
 O        6.46696835730625       3.75352256462453      10.74262107096064
 Pt       9.24070168385597       6.95527237992447       1.31036083000002
 Pt       9.24070169048928       2.15427277735792       1.31036083000002
 Pt      10.62663089385595       4.55477257869119       1.31036083000002
 Pt      12.01256009712263       6.95527237992447       1.31036083000002
 Pt       3.69698486385594       2.15427277735792       8.10000000000001
 Pt       5.08291406712261       4.55477257869119       8.10000000000001
 Pt       6.46884327048928       6.95527237992447       8.10000000000001
 Pt       6.46884327712261       2.15427277735792       8.10000000000001
 Pt       7.85477248048928       4.55477257869119       8.10000000000001
 Pt       9.24070168385597       6.95527237992447       8.10000000000001
 Pt       9.24070169048928       2.15427277735792       8.10000000000001
 Pt      10.62663089385595       4.55477257869119       8.10000000000001
 Pt      12.01256009712263       6.95527237992447       8.10000000000001
 Pt       5.08291406933372       2.95443937786901       5.83678694000002
 Pt       6.46884327270039       5.35493917910228       5.83678694000002
 Pt       7.85477247852396       7.75543898307631       5.83678694000002
 Pt       7.85477248270039       2.95443937786901       5.83678694000002
 Pt       9.24070168606706       5.35493917910228       5.83678694000002
 Pt      10.62663089189063       7.75543898307631       5.83678694000002
 Pt      10.62663089606706       2.95443937786901       5.83678694000002
 Pt      12.01256009933373       5.35493917910228       5.83678694000002
 Pt      13.39848929525730       7.75543898307631       5.83678694000002
 Pt       2.31105565827816       1.35410617694683       3.57357389000001
 Pt       3.69698486154483       3.75460597828010       3.57357389000001
 Pt       5.08291406491150       6.15510577951338       3.57357389000001
 Pt       5.08291407154483       1.35410617694683       3.57357389000001
 Pt       6.46884327491150       3.75460597828010       3.57357389000001
 Pt       7.85477247827817       6.15510577951338       3.57357389000001
 Pt       7.85477248491149       1.35410617694683       3.57357389000001
 Pt       9.24070168827817       3.75460597828010       3.57357389000001
 Pt      10.62663089154484       6.15510577951338       3.57357389000001
 Pt       3.69698486385594       2.15427277735792       1.31036083000002
 Pt       5.08291406712261       4.55477257869119       1.31036083000002
 Pt       6.46884327048928       6.95527237992447       1.31036083000002
 Pt       6.46884327712261       2.15427277735792       1.31036083000002
 Pt       7.85477248048928       4.55477257869119       1.31036083000002
VEC1       8.31557575000000       0.00000000000000       0.00000000000000
VEC2       4.15778787000000       7.20149984000000       0.00000000000000
38
Id 2 Energy(hartree)     -7.65157184 Min
 C        5.08344640664052       2.95543347565104       9.52486191606724
 O        5.08415425270694       2.95690968247300      10.74441858035259
 Pt       9.24070201000001       6.95527267000000       1.31036083000002
 Pt       9.24070201000001       2.15427277000000       1.31036083000002
 Pt      10.62663130000000       4.55477272000000       1.31036083000002
 Pt      12.01256059000000       6.95527267000000       1.31036083000002
 Pt       3.69698485000000       2.15427277000000       8.10000000000002
 Pt       5.08291414000000       4.55477272000000       8.10000000000002
 Pt       6.46884343000000       6.95527267000000       8.10000000000002
 Pt       6.46884343000000       2.15427277000000       8.10000000000002
 Pt       7.85477272000000       4.55477272000000       8.10000000000002
 Pt       9.24070201000001       6.95527267000000       8.10000000000002
 Pt       9.24070201000001       2.15427277000000       8.10000000000002
 Pt      10.62663130000000       4.55477272000000       8.10000000000002
 Pt      12.01256059000000       6.95527267000000       8.10000000000002
 Pt       5.08291414000000       2.95443942000000       5.83678694000002
 Pt       6.46884343000000       5.35493937000000       5.83678694000002
 Pt       7.85477272000000       7.75543932000000       5.83678694000002
 Pt       7.85477272000000       2.95443942000000       5.83678694000002
 Pt       9.24070201000001       5.35493937000000       5.83678694000002
 Pt      10.62663130000000       7.75543932000000       5.83678694000002
 Pt      10.62663130000001       2.95443942000000       5.83678694000002
 Pt      12.01256059000000       5.35493937000000       5.83678694000002
 Pt      13.39848987000001       7.75543932000000       5.83678694000002
 Pt       2.31105556000000       1.35410612000000       3.57357389000002
 Pt       3.69698485000000       3.75460607000000       3.57357389000002
 Pt       5.08291414000000       6.15510602000000       3.57357389000002
 Pt       5.08291414000000       1.35410612000000       3.57357389000002
 Pt       6.46884343000000       3.75460607000000       3.57357389000002
 Pt       7.85477272000000       6.15510602000000       3.57357389000002
 Pt       7.85477272000000       1.35410612000000       3.57357389000002
 Pt       9.24070201000001       3.75460607000000       3.57357389000002
 Pt      10.62663130000001       6.15510602000000       3.57357389000002
 Pt       3.69698485000000       2.15427277000000       1.31036083000002
 Pt       5.08291414000000       4.55477272000000       1.31036083000002
 Pt       6.46884343000000       6.95527267000000       1.31036083000002
 Pt       6.46884343000000       2.15427277000000       1.31036083000002
 Pt       7.85477272000000       4.55477272000000       1.31036083000002
VEC1       8.31557575000000       0.00000000000000       0.00000000000000
VEC2       4.15778787000000       7.20149984000000       0.00000000000000
38
Id 3 Energy(hartree)     -7.62382327 Min
 C        5.76016678384151       3.34539892024054       9.50066288876294
 O        5.73287053319516       3.32971810941304      10.72034838814213
 Pt       9.24070172725317       6.95527245441613       1.31036083000002
 Pt       9.24070173058651       2.15427270314958       1.31036083000002
 Pt      10.62663097725317       4.55477257878286       1.31036083000002
 Pt      12.01256022391984       6.95527245441613       1.31036083000002
 Pt       3.69698473725317       2.15427270314958       8.10000000000001
 Pt       5.08291398391983       4.55477257878286       8.10000000000001
 Pt       6.46884323058650       6.95527245441613       8.10000000000001
 Pt       6.46884323391983       2.15427270314958       8.10000000000001
 Pt       7.85477248058650       4.55477257878286       8.10000000000001
 Pt       9.24070172725317       6.95527245441613       8.10000000000001
 Pt       9.24070173058651       2.15427270314958       8.10000000000001
 Pt      10.62663097725317       4.55477257878286       8.10000000000001
 Pt      12.01256022391984       6.95527245441613       8.10000000000001
 Pt       5.08291398503095       2.95443932836068       5.83678694000002
 Pt       6.46884323169761       5.35493920399395       5.83678694000002
 Pt       7.85477247962118       7.75543908096797       5.83678694000002
 Pt       7.85477248169761       2.95443932836068       5.83678694000002
 Pt       9.24070172836428       5.35493920399395       5.83678694000002
 Pt      10.62663097628785       7.75543908096797       5.83678694000002
 Pt      10.62663097836428       2.95443932836068       5.83678694000002
 Pt      12.01256022503095       5.35493920399395       5.83678694000002
 Pt      13.39848946295452       7.75543908096797       5.83678694000002
 Pt       2.31105548947539       1.35410607793850       3.57357389000001
 Pt       3.69698473614205       3.75460595357177       3.57357389000001
 Pt       5.08291398280872       6.15510582920504       3.57357389000001
 Pt       5.08291398614206       1.35410607793850       3.57357389000001
 Pt       6.46884323280872       3.75460595357177       3.57357389000001
 Pt       7.85477247947538       6.15510582920504       3.57357389000001
 Pt       7.85477248280872       1.35410607793850       3.57357389000001
 Pt       9.24070172947540       3.75460595357177       3.57357389000001
 Pt      10.62663097614206       6.15510582920504       3.57357389000001
 Pt       3.69698473725316       2.15427270314958       1.31036083000002
 Pt       5.08291398391983       4.55477257878286       1.31036083000002
 Pt       6.46884323058650       6.95527245441613       1.31036083000002
 Pt       6.46884323391983       2.15427270314958       1.31036083000002
 Pt       7.85477248058650       4.55477257878286       1.31036083000002
VEC1       8.31557575000000       0.00000000000000       0.00000000000000
VEC2       4.15778787000000       7.20149984000000       0.00000000000000
38
Id 4 Energy(hartree)     -7.62254739 TS
 C        5.51014173250859       3.20100142274183       9.46212835269750
 O        5.48625019390746       3.18719389201101      10.68221885021112
 Pt       9.24070172725317       6.95527245441613       1.31036083000002
 Pt       9.24070173058651       2.15427270314958       1.31036083000002
 Pt      10.62663097725317       4.55477257878286       1.31036083000002
 Pt      12.01256022391984       6.95527245441613       1.31036083000002
 Pt       3.69698473725317       2.15427270314958       8.10000000000001
 Pt       5.08291398391983       4.55477257878286       8.10000000000001
 Pt       6.46884323058650       6.95527245441613       8.10000000000001
 Pt       6.46884323391983       2.15427270314958       8.10000000000001
 Pt       7.85477248058650       4.55477257878286       8.10000000000001
 Pt       9.24070172725317       6.95527245441613       8.10000000000001
 Pt       9.24070173058651       2.15427270314958       8.10000000000001
 Pt      10.62663097725317       4.55477257878286       8.10000000000001
 Pt      12.01256022391984       6.95527245441613       8.10000000000001
 Pt       5.08291398503095       2.95443932836068       5.83678694000002
 Pt       6.46884323169761       5.35493920399395       5.83678694000002
 Pt       7.85477247962118       7.75543908096797       5.83678694000002
 Pt       7.85477248169761       2.95443932836068       5.83678694000002
 Pt       9.24070172836428       5.35493920399395       5.83678694000002
 Pt      10.62663097628785       7.75543908096797       5.83678694000002
 Pt      10.62663097836428       2.95443932836068       5.83678694000002
 Pt      12.01256022503095       5.35493920399395       5.83678694000002
 Pt      13.39848946295452       7.75543908096797       5.83678694000002
 Pt       2.31105548947539       1.35410607793850       3.57357389000001
 Pt       3.69698473614205       3.75460595357177       3.57357389000001
 Pt       5.08291398280872       6.15510582920504       3.57357389000001
 Pt       5.08291398614206       1.35410607793850       3.57357389000001
 Pt       6.46884323280872       3.75460595357177       3.57357389000001
 Pt       7.85477247947538       6.15510582920504       3.57357389000001
 Pt       7.85477248280872       1.35410607793850       3.57357389000001
 Pt       9.24070172947540       3.75460595357177       3.57357389000001
 Pt      10.62663097614206       6.15510582920504       3.57357389000001
 Pt       3.69698473725316       2.15427270314958       1.31036083000002
 Pt       5.08291398391983       4.55477257878286       1.31036083000002
 Pt       6.46884323058650       6.95527245441613       1.31036083000002
 Pt       6.46884323391983       2.15427270314958       1.31036083000002
 Pt       7.85477248058650       4.55477257878286       1.31036083000002
VEC1       8.31557575000000       0.00000000000000       0.00000000000000
VEC2       4.15778787000000       7.20149984000000       0.00000000000000
38
Id 5 Energy(hartree)     -7.62243088 TS
 C        6.03985385363423       3.50689840530631       9.46119351700895
 O        6.06023817714048       3.51859863849934      10.68143363378271
 Pt       9.24070168385597       6.95527237992447       1.31036083000002
 Pt       9.24070169048928       2.15427277735792       1.31036083000002
 Pt      10.62663089385595       4.55477257869119       1.31036083000002
 Pt      12.01256009712263       6.95527237992447       1.31036083000002
 Pt       3.69698486385594       2.15427277735792       8.10000000000001
 Pt       5.08291406712261       4.55477257869119       8.10000000000001
 Pt       6.46884327048928       6.95527237992447       8.10000000000001
 Pt       6.46884327712261       2.15427277735792       8.10000000000001
 Pt       7.85477248048928       4.55477257869119       8.10000000000001
 Pt       9.24070168385597       6.95527237992447       8.10000000000001
 Pt       9.24070169048928       2.15427277735792       8.10000000000001
 Pt      10.62663089385595       4.55477257869119       8.10000000000001
 Pt      12.01256009712263       6.95527237992447       8.10000000000001
 Pt       5.08291406933372       2.95443937786901       5.83678694000002
 Pt       6.46884327270039       5.35493917910228       5.83678694000002
 Pt       7.85477247852396       7.75543898307631       5.83678694000002
 Pt       7.85477248270039       2.95443937786901       5.83678694000002
 Pt       9.24070168606706       5.35493917910228       5.83678694000002
 Pt      10.62663089189063       7.75543898307631       5.83678694000002
 Pt      10.62663089606706       2.95443937786901       5.83678694000002
 Pt      12.01256009933373       5.35493917910228       5.83678694000002
 Pt      13.39848929525730       7.75543898307631       5.83678694000002
 Pt       2.31105565827816       1.35410617694683       3.57357389000001
 Pt       3.69698486154483       3.75460597828010       3.57357389000001
 Pt       5.08291406491150       6.15510577951338       3.57357389000001
 Pt       5.08291407154483       1.35410617694683       3.57357389000001
 Pt       6.46884327491150       3.75460597828010       3.57357389000001
 Pt       7.85477247827817       6.15510577951338       3.57357389000001
 Pt       7.85477248491149       1.35410617694683       3.57357389000001
 Pt       9.24070168827817       3.75460597828010       3.57357389000001
 Pt      10.62663089154484       6.15510577951338       3.57357389000001
 Pt       3.69698486385594       2.15427277735792       1.31036083000002
 Pt       5.08291406712261       4.55477257869119       1.31036083000002
 Pt       6.46884327048928       6.95527237992447       1.31036083000002
 Pt       6.46884327712261       2.15427277735792       1.31036083000002
 Pt       7.85477248048928       4.55477257869119       1.31036083000002
VEC1       8.31557575000000       0.00000000000000       0.00000000000000
VEC2       4.15778787000000       7.20149984000000       0.00000000000000

-------------------------
Binding Sites Computation
-------------------------

> Sorting Binding Sites ... DONE


-----------------------
Binding Sites Per State
-----------------------

Number of binding sites:                            11
Number of connections:                               4

Binding sites:

   id   Label   State    Atom   Energy(a.u.)              x              y              z
    1      N6       1       1      -7.651642        6.46809        3.75417        9.52300
    2      N7       2       1      -7.651572        5.08345        2.95543        9.52486
    3      N5       3       1      -7.623823        5.76017        3.34540        9.50066
    4      N7       2       1      -7.651572        5.08345        2.95543        9.52486
    5      N5       3       1      -7.623823        5.76017        3.34540        9.50066
    6      N7       2       1      -7.651572        5.08345        2.95543        9.52486
    7      N5       3       1      -7.623823        5.76017        3.34540        9.50066
    8      N6       1       1      -7.651642        6.46809        3.75417        9.52300
    9      N5       3       1      -7.623823        5.76017        3.34540        9.50066
   10      N6       1       1      -7.651642        6.46809        3.75417        9.52300
   11      N5       3       1      -7.623823        5.76017        3.34540        9.50066

Connections:

   id  Source  Target       ld
    1       4       5     0  0
    2       6       7     0  0
    3       8       9     0  0
    4      10      11     0  0

-------------
Binding Sites
-------------

Number of binding sites:                             3
Number of connections:                               2

Binding sites:

   id   Label   Aver.E(a.u.)  Stdev.E(a.u.)              x              y              z     Parents
    1      N7      -7.651572       0.000000        5.08345        2.95543        9.52486     2(1)
    2      N6      -7.651642       0.000000        6.46809        3.75417        9.52300     1(1)
    3      N5      -7.623823       0.000000        5.76017        3.34540        9.50066     3(1)

Binding sites (fractional):

   id   Label   Aver.E(a.u.)  Stdev.E(a.u.)              x              y              z     Parents
    1      N7      -7.651572       0.000000        0.40612        0.41039       17.99938     2(1)
    2      N6      -7.651642       0.000000        0.51718        0.52130       17.99586     1(1)
    3      N5      -7.623823       0.000000        0.46043        0.46454       17.95365     3(1)

Connections:

   id  Source  Target       ld
    1       1       3     0  0
    2       2       3     0  0

AMS application finished. Exiting.
NORMAL TERMINATION
     Total cpu time:      77.00
  Total system time:       2.28
 Total elapsed time:      80.86
