
 *******************************************************************************
 *                                                                             *
 *  --------------------------------                                           *
 *   Amsterdam Modeling Suite (AMS)              2019.405                      *
 *  --------------------------------                                           *
 *                                               r87350 2020-09-02             *
 *                                                                             *
 *                                                                             *
 *                              =================                              *
 *                              |               |                              *
 *                              |     A M S     |                              *
 *                              |               |                              *
 *                              =================                              *
 *                                                                             *
 *                                                                             *
 *   Online information and documentation:  https://www.scm.com/support/       *
 *   E-mail:  support@scm.com   info@scm.com                                   *
 *                                                                             *
 *   Scientific publications using AMS results must be properly referenced     *
 *   See the User Manuals (or the web site) for recommended citations          *
 *   The terms and conditions of the End User License Agreement apply to       *
 *   the use of AMS, https://www.scm.com/license-terms/                        *
 *                                                                             *
 ****************************  x86_64_linux_intel  *****************************
 
 Licensed to: Dr. Nestor Aguirre Castiblanco  / SCM / Amsterdam / NETHERLANDS
 SCM User ID: u22021
  
 AMS 2019.405  RunTime: Sep07-2020 18:24:33  Nodes: 1  Procs: 1

 AMS jobname: BindingSites-EON
 AMS jobid  : 1230826812

 Start   directory: /home/aguirre/Develop/pyZacros/plams_workdir/BindingSites-EON/
 Results directory: /home/aguirre/Develop/pyZacros/plams_workdir/BindingSites-EON/
 Scratch directory: /scratch/aguirre/amstmp_BindingSites-EON_kid0.1230826812/

 RNG seed: -886588444 -691324171 1504621392 1193043722 68453108 -1395327588 -566140371 711770495
 MPI rank    0: Number of processors available to this process:      8
 MPI rank    0: Default max number of OpenMP threads:                1
 MPI rank    0: The OMP_NUM_THREADS environment variable is not set!
Force field identifier: Reactive MD-force field: C/H/O/N/S/F/Pt/
 Triple bond stabilization enabled for C-O only
 Non-bonding interaction type[nonbontype]:
 No inner wall, shielding
 Warning:changed vval3 to valf for X 
 
 Restoring states database from: /home/aguirre/Develop/pyZacros/tests/test_Mecha
 nismFromAMS.data/ProcessSearch-EON/ams.rkf

---------------
States Database
---------------

        Id        Energy(a.u.)         RE(eV)   RE(kcal/mol)    Counts   TS
     ----------------------------------------------------------------------
         1           -7.278632        0.00000         0.0000        12    F
         2           -7.278618        0.00038         0.0088         6    F
         3           -7.278615        0.00046         0.0107        28    F
         4           -7.278614        0.00050         0.0114        14    F
         5           -7.278607        0.00068         0.0156        23    F
         6           -7.278599        0.00088         0.0203        16    F
         7           -7.278596        0.00098         0.0225        15    F
         8           -7.278585        0.00127         0.0294        20    F
         9           -7.278577        0.00148         0.0341        11    F
        10           -7.271337        0.19849         4.5774        16    F
        11           -7.271322        0.19890         4.5868        17    F
        12           -7.271315        0.19910         4.5914        14    F
        13           -7.271311        0.19920         4.5936        20    F
        14           -7.271304        0.19939         4.5979        23    F
        15           -7.271295        0.19963         4.6036        18    F
        16           -7.271282        0.20000         4.6120        16    F
        17           -7.271276        0.20015         4.6155        13    F
        18           -7.271275        0.20018         4.6162         8    F
        19           -7.252908        0.69999        16.1421         5    T 10-->6
        20           -7.252901        0.70017        16.1464         2    T 4-->11
        21           -7.252890        0.70048        16.1533         7    T 5-->11
        22           -7.252887        0.70054        16.1549         1    T 2-->13
        23           -7.252887        0.70056        16.1553         6    T 8-->10
        24           -7.252884        0.70064        16.1572         3    T 12-->9
        25           -7.252882        0.70068        16.1581         8    T 3-->13
        26           -7.252879        0.70076        16.1599        11    T 13-->5
        27           -7.252879        0.70078        16.1603         5    T 15-->1
        28           -7.252876        0.70085        16.1619         4    T 12-->6
        29           -7.252875        0.70087        16.1623         4    T 9-->14
        30           -7.252871        0.70100        16.1654         8    T 3-->15
        31           -7.252869        0.70104        16.1664         5    T 15-->4
        32           -7.252868        0.70106        16.1668         7    T 14-->8
        33           -7.252863        0.70121        16.1703         5    T 5-->10
        34           -7.252862        0.70124        16.1710         8    T 7-->11
        35           -7.252857        0.70137        16.1740         5    T 16-->7
        36           -7.252855        0.70142        16.1751         2    T 18-->2
        37           -7.252853        0.70146        16.1761         7    T 6-->17
        38           -7.252852        0.70151        16.1771         3    T 1-->17
        39           -7.252851        0.70154        16.1779         7    T 8-->16
        40           -7.252850        0.70157        16.1786        12    T 3-->14
        41           -7.252835        0.70196        16.1875         7    T 4-->12
        42           -7.252833        0.70203        16.1891         3    T 17-->2
        43           -7.252833        0.70203        16.1893         4    T 1-->16
        44           -7.252832        0.70205        16.1897         4    T 9-->18
        45           -7.252822        0.70233        16.1960         2    T 7-->18

Number of configurations                            45
Energy range (a.u.)                           0.025810
Energy range (eV)                              0.70233
Energy range (kcal/mol)                        16.1960

       ***********************************
       *  EON (Long timescale dynamics)  *
       ***********************************

--------------
EON Parameters
--------------

Relaxing 3 degrees of freedom

SeedStates                                1   2   3   4   5   6   7   8   9  10  11  12  13  14  15  16  17  18  19  20  21  22  23  24  25  26  27  28  29  30  31  32  33  34  35  36  37  38  39  40  41  42  43  44  45

RandomSeed                                          -1
Temperature                                  300.00000
FiniteDifference                               0.01000
SamplingFreq                                    normal
NumJobs                                              1
      
   StructureComparison
   -------------------
   DistanceDifference                          0.10000
   NeighborCutoff                             10.00000
   CheckRotation                                     F
   IndistinguishableAtoms                            T
   EnergyDifference                            0.10000
   RemoveTranslation                                 T

   SaddleSearch
   ------------
   DisplaceMinNorm                             0.00000
 
--------
Geometry
--------
Atoms
  Index Symbol   x (angstrom)   y (angstrom)   z (angstrom)
      1      O     5.54298287     1.60250367     8.92707013       region=adsorbate
      2     Pt     8.31521714     4.80239136     7.78926430       region=surface
      3     Pt     5.54298786     0.00160612     7.79128800       region=surface
      4     Pt     6.92910250     2.40199874     7.79027615       region=surface
      5     Pt    11.08707571     4.80244586     7.78854885       region=surface
      6     Pt     8.31484643     0.00166062     7.79057254       region=surface
      7     Pt     9.70096096     2.40178486     7.79068672       region=surface
      8     Pt     5.54335868     4.80260524     7.78885374       region=surface
      9     Pt     2.77112940     0.00182001     7.79087743       region=surface
     10     Pt     4.15724404     2.40221263     7.78986559       region=surface
     11     Pt     9.70154331     5.60130339     5.52585419       region=surface
     12     Pt     6.92931403     0.80051815     5.52787789       region=surface
     13     Pt     8.31542867     3.20091077     5.52686604       region=surface
     14     Pt     4.15782639     5.60173116     5.52503306       region=surface
     15     Pt     1.38559711     0.80094593     5.52705675       region=surface
     16     Pt     2.77171175     3.20133854     5.52604491       region=surface
     17     Pt     6.92968485     5.60151727     5.52544363       region=surface
     18     Pt     4.15745557     0.80073204     5.52746732       region=surface
     19     Pt     5.54357021     3.20112466     5.52645547       region=surface
     20     Pt     6.92989639     4.00003668     3.26303536       region=surface
     21     Pt     8.31601103     6.40042930     3.26202352       region=surface
     22     Pt     5.54378174     1.59964406     3.26404721       region=surface
     23     Pt     9.70175484     3.99982280     3.26344593       region=surface
     24     Pt    11.08786948     6.40021541     3.26243408       region=surface
     25     Pt     8.31564020     1.59943018     3.26445778       region=surface
     26     Pt     4.15803792     4.00025057     3.26262480       region=surface
     27     Pt     5.54415256     6.40064318     3.26161295       region=surface
     28     Pt     2.77192328     1.59985795     3.26363664       region=surface
     29     Pt     1.38639089     2.39871548     1.00094199       region=surface
     30     Pt     5.54436409     4.79916260     0.99921469       region=surface
     31     Pt     6.93024583     7.19969029     1.00043291       region=surface
     32     Pt     4.15824945     2.39876998     1.00022653       region=surface
     33     Pt     8.31622256     4.79894871     0.99962525       region=surface
     34     Pt     9.70210429     7.19947641     1.00084348       region=surface
     35     Pt     6.93010792     2.39855609     1.00063710       region=surface
     36     Pt     2.77250564     4.79937648     0.99880412       region=surface
     37     Pt     4.15838737     7.19990418     1.00002234       region=surface
 
Lattice vectors (angstrom)
      1     8.31557575     0.00000000     0.00000000
      2     4.15778787     7.20149984     0.00000000
      3     0.00000000     0.00000000    20.00000000
 
Unit cell volume (angstrom^3)      1197.69235
 
Total System Charge             0.00000
 

Reference geometry for adsorbent:
   Note: All states are going to be aligned with this reference
 
--------
Geometry
--------
Atoms
  Index Symbol   x (angstrom)   y (angstrom)   z (angstrom)
      1     Pt     8.31521714     4.80239136     7.78926430       region=surface
      2     Pt     5.54298786     0.00160612     7.79128800       region=surface
      3     Pt     6.92910250     2.40199874     7.79027615       region=surface
      4     Pt    11.08707571     4.80244586     7.78854885       region=surface
      5     Pt     8.31484643     0.00166062     7.79057254       region=surface
      6     Pt     9.70096096     2.40178486     7.79068672       region=surface
      7     Pt     5.54335868     4.80260524     7.78885374       region=surface
      8     Pt     2.77112940     0.00182001     7.79087743       region=surface
      9     Pt     4.15724404     2.40221263     7.78986559       region=surface
     10     Pt     9.70154331     5.60130339     5.52585419       region=surface
     11     Pt     6.92931403     0.80051815     5.52787789       region=surface
     12     Pt     8.31542867     3.20091077     5.52686604       region=surface
     13     Pt     4.15782639     5.60173116     5.52503306       region=surface
     14     Pt     1.38559711     0.80094593     5.52705675       region=surface
     15     Pt     2.77171175     3.20133854     5.52604491       region=surface
     16     Pt     6.92968485     5.60151727     5.52544363       region=surface
     17     Pt     4.15745557     0.80073204     5.52746732       region=surface
     18     Pt     5.54357021     3.20112466     5.52645547       region=surface
     19     Pt     6.92989639     4.00003668     3.26303536       region=surface
     20     Pt     8.31601103     6.40042930     3.26202352       region=surface
     21     Pt     5.54378174     1.59964406     3.26404721       region=surface
     22     Pt     9.70175484     3.99982280     3.26344593       region=surface
     23     Pt    11.08786948     6.40021541     3.26243408       region=surface
     24     Pt     8.31564020     1.59943018     3.26445778       region=surface
     25     Pt     4.15803792     4.00025057     3.26262480       region=surface
     26     Pt     5.54415256     6.40064318     3.26161295       region=surface
     27     Pt     2.77192328     1.59985795     3.26363664       region=surface
     28     Pt     1.38639089     2.39871548     1.00094199       region=surface
     29     Pt     5.54436409     4.79916260     0.99921469       region=surface
     30     Pt     6.93024583     7.19969029     1.00043291       region=surface
     31     Pt     4.15824945     2.39876998     1.00022653       region=surface
     32     Pt     8.31622256     4.79894871     0.99962525       region=surface
     33     Pt     9.70210429     7.19947641     1.00084348       region=surface
     34     Pt     6.93010792     2.39855609     1.00063710       region=surface
     35     Pt     2.77250564     4.79937648     0.99880412       region=surface
     36     Pt     4.15838737     7.19990418     1.00002234       region=surface
 
Lattice vectors (angstrom)
      1     8.31557575     0.00000000     0.00000000
      2     4.15778787     7.20149984     0.00000000
      3     0.00000000     0.00000000    20.00000000
 
Unit cell volume (angstrom^3)      1197.69235
 
Total System Charge             0.00000
 

-------------------------
Binding Sites Computation
-------------------------

-----------------------
Binding Sites Per State
-----------------------

Number of binding sites:                            54
Number of connections:                              27

Binding sites:

   id   Label  Parent   Energy(a.u.)              x              y              z
    1      15      10      -7.271337        8.31502        3.20297        8.91903
    2      11       6      -7.278599        9.70139        4.00310        8.92606
    3      11       4      -7.278614        2.77150        1.60206        8.92702
    4      15      11      -7.271322        1.38524        0.80196        8.91972
    5      11       5      -7.278607        8.31489        1.60173        8.92708
    6      15      11      -7.271322        1.38524        0.80196        8.91972
    7      11       2      -7.278618       11.08744        6.40143        8.92671
    8      15      13      -7.271311        6.92937        0.80200        8.91976
    9      11       8      -7.278585        6.92898        4.00292        8.92603
   10      15      10      -7.271337        8.31502        3.20297        8.91903
   11      15      12      -7.271315        2.77189        3.20341        8.91864
   12      11       9      -7.278577        4.15719        4.00286        8.92565
   13      11       3      -7.278615        5.54297        1.60252        8.92703
   14      15      13      -7.271311        6.92937        0.80200        8.91976
   15      15      13      -7.271311        6.92937        0.80200        8.91976
   16      11       5      -7.278607        8.31489        1.60173        8.92708
   17      15      15      -7.271295        4.15691        0.80241        8.91972
   18      11       1      -7.278632        8.31494        6.40181        8.92703
   19      15      12      -7.271315        2.77189        3.20341        8.91864
   20      11       6      -7.278599        9.70139        4.00310        8.92606
   21      11       9      -7.278577        4.15719        4.00286        8.92565
   22      15      14      -7.271304        5.54298        3.20318        8.91863
   23      11       3      -7.278615        5.54297        1.60252        8.92703
   24      15      15      -7.271295        4.15691        0.80241        8.91972
   25      15      15      -7.271295        4.15691        0.80241        8.91972
   26      11       4      -7.278614        2.77150        1.60206        8.92702
   27      15      14      -7.271304        5.54298        3.20318        8.91863
   28      11       8      -7.278585        6.92898        4.00292        8.92603
   29      11       5      -7.278607        8.31489        1.60173        8.92708
   30      15      10      -7.271337        8.31502        3.20297        8.91903
   31      11       7      -7.278596        5.54313        6.40167        8.92668
   32      15      11      -7.271322        1.38524        0.80196        8.91972
   33      15      16      -7.271282        6.92874        5.60174        8.91862
   34      11       7      -7.278596        5.54313        6.40167        8.92668
   35      15      18      -7.271275        4.15701        5.60169        8.91828
   36      11       2      -7.278618       11.08744        6.40143        8.92671
   37      11       6      -7.278599        9.70139        4.00310        8.92606
   38      15      17      -7.271276        9.70124        5.60128        8.91868
   39      11       1      -7.278632        8.31494        6.40181        8.92703
   40      15      17      -7.271276        9.70124        5.60128        8.91868
   41      11       8      -7.278585        6.92898        4.00292        8.92603
   42      15      16      -7.271282        6.92874        5.60174        8.91862
   43      11       3      -7.278615        5.54297        1.60252        8.92703
   44      15      14      -7.271304        5.54298        3.20318        8.91863
   45      11       4      -7.278614        2.77150        1.60206        8.92702
   46      15      12      -7.271315        2.77189        3.20341        8.91864
   47      15      17      -7.271276        9.70124        5.60128        8.91868
   48      11       2      -7.278618       11.08744        6.40143        8.92671
   49      11       1      -7.278632        8.31494        6.40181        8.92703
   50      15      16      -7.271282        6.92874        5.60174        8.91862
   51      11       9      -7.278577        4.15719        4.00286        8.92565
   52      15      18      -7.271275        4.15701        5.60169        8.91828
   53      11       7      -7.278596        5.54313        6.40167        8.92668
   54      15      18      -7.271275        4.15701        5.60169        8.91828

Connections:

   id  Source  Target          ld
    1       1       2     0  0  0
    2       3       4     0  0  0
    3       5       6     1  0  0
    4       7       8     0  1  0
    5       9      10     0  0  0
    6      11      12     0  0  0
    7      13      14     0  0  0
    8      15      16     0  0  0
    9      17      18     0 -1  0
   10      19      20    -1  0  0
   11      21      22     0  0  0
   12      23      24     0  0  0
   13      25      26     0  0  0
   14      27      28     0  0  0
   15      29      30     0  0  0
   16      31      32     0  1  0
   17      33      34     0  0  0
   18      35      36    -1  0  0
   19      37      38     0  0  0
   20      39      40     0  0  0
   21      41      42     0  0  0
   22      43      44     0  0  0
   23      45      46     0  0  0
   24      47      48     0  0  0
   25      49      50     0  0  0
   26      51      52     0  0  0
   27      53      54     0  0  0

-------------
Binding Sites
-------------

Number of binding sites:                            18
Number of connections:                              27

Binding sites:

   id   Label   Aver.E(a.u.)  Stdev.E(a.u.)              x              y              z     Parents
    1      11      -7.278632       0.000000        8.31494        6.40181        8.92703     1
    2      11      -7.278618       0.000000       11.08744        6.40143        8.92671     2
    3      11      -7.278615       0.000000        5.54297        1.60252        8.92703     3
    4      11      -7.278614       0.000000        2.77150        1.60206        8.92702     4
    5      11      -7.278607       0.000000        8.31489        1.60173        8.92708     5
    6      11      -7.278599       0.000000        9.70139        4.00310        8.92606     6
    7      11      -7.278596       0.000000        5.54313        6.40167        8.92668     7
    8      11      -7.278585       0.000000        6.92898        4.00292        8.92603     8
    9      11      -7.278577       0.000000        4.15719        4.00286        8.92565     9
   10      15      -7.271337       0.000000        8.31502        3.20297        8.91903     10
   11      15      -7.271322       0.000000        1.38524        0.80196        8.91972     11
   12      15      -7.271315       0.000000        2.77189        3.20341        8.91864     12
   13      15      -7.271311       0.000000        6.92937        0.80200        8.91976     13
   14      15      -7.271304       0.000000        5.54298        3.20318        8.91863     14
   15      15      -7.271295       0.000000        4.15691        0.80241        8.91972     15
   16      15      -7.271282       0.000000        6.92874        5.60174        8.91862     16
   17      15      -7.271276       0.000000        9.70124        5.60128        8.91868     17
   18      15      -7.271275       0.000000        4.15701        5.60169        8.91828     18

Connections:

   id  Source  Target          ld
    1      10       6     0  0  0
    2       4      11     0  0  0
    3       5      11     1  0  0
    4       2      13     0  1  0
    5       8      10     0  0  0
    6      12       9     0  0  0
    7       3      13     0  0  0
    8      13       5     0  0  0
    9      15       1     0 -1  0
   10      12       6    -1  0  0
   11       9      14     0  0  0
   12       3      15     0  0  0
   13      15       4     0  0  0
   14      14       8     0  0  0
   15       5      10     0  0  0
   16       7      11     0  1  0
   17      16       7     0  0  0
   18      18       2    -1  0  0
   19       6      17     0  0  0
   20       1      17     0  0  0
   21       8      16     0  0  0
   22       3      14     0  0  0
   23       4      12     0  0  0
   24      17       2     0  0  0
   25       1      16     0  0  0
   26       9      18     0  0  0
   27       7      18     0  0  0
 
Saving database on KF unit ... OK 

---------------------
Final States Database
---------------------

        Id        Energy(a.u.)         RE(eV)   RE(kcal/mol)    Counts   TS
     ----------------------------------------------------------------------
         1           -7.278632        0.00000         0.0000        12    F
         2           -7.278618        0.00038         0.0088         6    F
         3           -7.278615        0.00046         0.0107        28    F
         4           -7.278614        0.00050         0.0114        14    F
         5           -7.278607        0.00068         0.0156        23    F
         6           -7.278599        0.00088         0.0203        16    F
         7           -7.278596        0.00098         0.0225        15    F
         8           -7.278585        0.00127         0.0294        20    F
         9           -7.278577        0.00148         0.0341        11    F
        10           -7.271337        0.19849         4.5774        16    F
        11           -7.271322        0.19890         4.5868        17    F
        12           -7.271315        0.19910         4.5914        14    F
        13           -7.271311        0.19920         4.5936        20    F
        14           -7.271304        0.19939         4.5979        23    F
        15           -7.271295        0.19963         4.6036        18    F
        16           -7.271282        0.20000         4.6120        16    F
        17           -7.271276        0.20015         4.6155        13    F
        18           -7.271275        0.20018         4.6162         8    F
        19           -7.252908        0.69999        16.1421         5    T 10-->6
        20           -7.252901        0.70017        16.1464         2    T 4-->11
        21           -7.252890        0.70048        16.1533         7    T 5-->11
        22           -7.252887        0.70054        16.1549         1    T 2-->13
        23           -7.252887        0.70056        16.1553         6    T 8-->10
        24           -7.252884        0.70064        16.1572         3    T 12-->9
        25           -7.252882        0.70068        16.1581         8    T 3-->13
        26           -7.252879        0.70076        16.1599        11    T 13-->5
        27           -7.252879        0.70078        16.1603         5    T 15-->1
        28           -7.252876        0.70085        16.1619         4    T 12-->6
        29           -7.252875        0.70087        16.1623         4    T 9-->14
        30           -7.252871        0.70100        16.1654         8    T 3-->15
        31           -7.252869        0.70104        16.1664         5    T 15-->4
        32           -7.252868        0.70106        16.1668         7    T 14-->8
        33           -7.252863        0.70121        16.1703         5    T 5-->10
        34           -7.252862        0.70124        16.1710         8    T 7-->11
        35           -7.252857        0.70137        16.1740         5    T 16-->7
        36           -7.252855        0.70142        16.1751         2    T 18-->2
        37           -7.252853        0.70146        16.1761         7    T 6-->17
        38           -7.252852        0.70151        16.1771         3    T 1-->17
        39           -7.252851        0.70154        16.1779         7    T 8-->16
        40           -7.252850        0.70157        16.1786        12    T 3-->14
        41           -7.252835        0.70196        16.1875         7    T 4-->12
        42           -7.252833        0.70203        16.1891         3    T 17-->2
        43           -7.252833        0.70203        16.1893         4    T 1-->16
        44           -7.252832        0.70205        16.1897         4    T 9-->18
        45           -7.252822        0.70233        16.1960         2    T 7-->18

Number of configurations                            45
Energy range (a.u.)                           0.025810
Energy range (eV)                              0.70233
Energy range (kcal/mol)                        16.1960

Configurations
--------------
37
Id 1 Energy(hartree)     -7.27863174
O        8.31494239194408       6.40180970239843       8.92702840175591
Pt       8.31521703259150       4.80239124083514       7.78926430454450
Pt       5.54298792054020       0.00160629370615       7.79128795549603
Pt       6.92910247656584       2.40199876727065       7.79027613002027
Pt      11.08707543378751       4.80244574033854       7.78854883906170
Pt       8.31484632173621       0.00166079310955       7.79057248001323
Pt       9.70096076776811       2.40178488676708       7.79068668453386
Pt       5.54335874138923       4.80260512133871       7.78885376003091
Pt       2.77112962933793       0.00182018410972       7.79087740098243
Pt       4.15724418536358       2.40221265767421       7.78986558550667
Pt       9.70154310568149       5.60130325227998       5.52585419753982
Pt       6.92931399363019       0.80051830515098       5.52787784849134
Pt       8.31542854965584       3.20091077871548       5.52686602301558
Pt       4.15782652327696       5.60173102328711       5.52503309851263
Pt       1.38559741122566       0.80094608615812       5.52705673946415
Pt       2.77171196725131       3.20133854972262       5.52604492398839
Pt       6.92968481447922       5.60151713278355       5.52544365302622
Pt       4.15745570242792       0.80073219565455       5.52746729397775
Pt       5.54357025845357       3.20112466921905       5.52645546850199
Pt       6.92989634154351       4.00003667076402       3.26303536149730
Pt       8.31601089756917       6.40042914432852       3.26202354602154
Pt       5.54378177551786       1.59964419719952       3.26404718697306
Pt       9.70175462274577       3.99982279026045       3.26344591601089
Pt      11.08786917877142       6.40021525382495       3.26243409053513
Pt       8.31564006672012       1.59943031669595       3.26445774148665
Pt       4.15803804034125       4.00025056126758       3.26262481698370
Pt       5.54415259636690       6.40064302483208       3.26161299150794
Pt       2.77192348431559       1.59985808770309       3.26363663245947
Pt       1.38639116620957       2.39871559974452       1.00094200093758
Pt       5.54436411343124       4.79916257281242       0.99921470997901
Pt       6.93024576947646       7.19969011634287       1.00043295450637
Pt       4.15824955740558       2.39877009924792       1.00022652545478
Pt       8.31622241463350       4.79894868230885       0.99962525449261
Pt       9.70210406067873       7.19947623583930       1.00084350901996
Pt       6.93010785860785       2.39855620874435       1.00063707996837
Pt       2.77250583222898       4.79937645321599       0.99880415546542
Pt       4.15838747827420       7.19990400674644       1.00002239999278
VEC1       8.31557574680000       0.00000000000000       0.00000000000000
VEC2       4.15778787340000       7.20149984380000       0.00000000000000
VEC3       0.00000000000000       0.00000000000000      20.00000000000000
37
Id 2 Energy(hartree)     -7.27861770
O       11.08743805159024       6.40142715307179       8.92670921012870
Pt       8.31521681776780       4.80239100258194       7.78926431362135
Pt       5.54298804158695       0.00160664121031       7.79128786649841
Pt       6.92910242967737       2.40199882189613       7.79027609005988
Pt      11.08707488135585       4.80244550109291       7.78854881715989
Pt       8.31484610517500       0.00166113922129       7.79057236003695
Pt       9.70096038328416       2.40178494036986       7.79068661358760
Pt       5.54335886416102       4.80260488410820       7.78885380009363
Pt       2.77113008798016       0.00182053223658       7.79087734297069
Pt       4.15724447607059       2.40221271292239       7.78986557653216
Pt       9.70154269705200       5.60130297676770       5.52585421259919
Pt       6.92931392087115       0.80051861539608       5.52787776547625
Pt       8.31542830896157       3.20091079608189       5.52686598903772
Pt       4.15782678983843       5.60173074982022       5.52503317554376
Pt       1.38559801365758       0.80094639844860       5.52705671842082
Pt       2.77171240174801       3.20133856913441       5.52604495198228
Pt       6.92968474344522       5.60151685829396       5.52544369907147
Pt       4.15745596726436       0.80073250692234       5.52746724194854
Pt       5.54357035535479       3.20112468760815       5.52645546551000
Pt       6.92989624463883       4.00003665229432       3.26303536448784
Pt       8.31601063272925       6.40042883298013       3.26202359804931
Pt       5.54378184654839       1.59964447160851       3.26404714092637
Pt       9.70175418824561       3.99982277076806       3.26344588801556
Pt      11.08786857633604       6.40021494145387       3.26243411157702
Pt       8.31563980015518       1.59943059008225       3.26445766445409
Pt       4.15803828103204       4.00025054382058       3.26262485096012
Pt       5.54415266912247       6.40064271450639       3.26161307452159
Pt       2.77192389294161       1.59985836313477       3.26363661739865
Pt       1.38639171863776       2.39871583930956       1.00094202283795
Pt       5.54436416031624       4.79916251850635       0.99921474993796
Pt       6.93024564845122       7.19968976909825       1.00043304350878
Pt       4.15824977222581       2.39877033782054       1.00022651637649
Pt       8.31622212392303       4.79894862698009       0.99962526346568
Pt       9.70210360205800       7.19947588757199       1.00084356703649
Pt       6.93010773583260       2.39855644629428       1.00063703990421
Pt       2.77250621670946       4.79937639953261       0.99880422641024
Pt       4.15838769484444       7.19990366012451       1.00002251998107
VEC1       8.31557574680000       0.00000000000000       0.00000000000000
VEC2       4.15778787340000       7.20149984380000       0.00000000000000
VEC3       0.00000000000000       0.00000000000000      20.00000000000000
37
Id 3 Energy(hartree)     -7.27861477
O        5.54297235154862       1.60251978807988       8.92703010281137
Pt       8.31521708629742       4.80239130039845       7.78926430227529
Pt       5.54298789027851       0.00160620683011       7.79128797774543
Pt       6.92910248828797       2.40199875361428       7.79027614001036
Pt      11.08707557189543       4.80244580014995       7.78854884453716
Pt       8.31484637587652       0.00166070658161       7.79057251000730
Pt       9.70096086388910       2.40178487336638       7.79068670227043
Pt       5.54335871069629       4.80260518064634       7.78885375001523
Pt       2.77112951467738       0.00182009707800       7.79087741548537
Pt       4.15724411268683       2.40221264386217       7.78986558775030
Pt       9.70154320783886       5.60130332115805       5.52585419377497
Pt       6.92931401181995       0.80051822758971       5.52787786924511
Pt       8.31542860982940       3.20091077437388       5.52686603151004
Pt       4.15782645663660       5.60173109165384       5.52503307925485
Pt       1.38559726061768       0.80094600808550       5.52705674472498
Pt       2.77171185862714       3.20133854486967       5.52604491698991
Pt       6.92968483223773       5.60151720140594       5.52544364151491
Pt       4.15745563621881       0.80073211783760       5.52746730698505
Pt       5.54357023422827       3.20112466462177       5.52645546924998
Pt       6.92989636576968       4.00003667538144       3.26303536074966
Pt       8.31601096377914       6.40042922216561       3.26202353301459
Pt       5.54378175776023       1.59964412859727       3.26404719848473
Pt       9.70175473137081       3.99982279513355       3.26344592300972
Pt      11.08786932938027       6.40021533191772       3.26243408527465
Pt       8.31564013336136       1.59943024834938       3.26445776074480
Pt       4.15803798016855       4.00025056562934       3.26262480848960
Pt       5.54415257817801       6.40064310241351       3.26161297075453
Pt       2.77192338215909       1.59985801884517       3.26363663622467
Pt       1.38639102810252       2.39871553985327       1.00094199546248
Pt       5.54436410170999       4.79916258638894       0.99921469998928
Pt       6.93024579973277       7.19969020315402       1.00043293225577
Pt       4.15824950370054       2.39877003960477       1.00022652772435
Pt       8.31622248731112       4.79894869614104       0.99962525224934
Pt       9.70210417533391       7.19947632290613       1.00084349451583
Pt       6.93010788930167       2.39855614935688       1.00063708998442
Pt       2.77250573610886       4.79937646663683       0.99880413772922
Pt       4.15838742413164       7.19990409340192       1.00002236999570
VEC1       8.31557574680000       0.00000000000000       0.00000000000000
VEC2       4.15778787340000       7.20149984380000       0.00000000000000
VEC3       0.00000000000000       0.00000000000000      20.00000000000000
37
Id 4 Energy(hartree)     -7.27861352
O        2.77149779560276       1.60205721200555       8.92702440970607
Pt       8.31521703259150       4.80239124083514       7.78926430454450
Pt       5.54298792054020       0.00160629370615       7.79128795549603
Pt       6.92910247656584       2.40199876727065       7.79027613002027
Pt      11.08707543378751       4.80244574033854       7.78854883906170
Pt       8.31484632173621       0.00166079310955       7.79057248001323
Pt       9.70096076776811       2.40178488676708       7.79068668453386
Pt       5.54335874138923       4.80260512133871       7.78885376003091
Pt       2.77112962933793       0.00182018410972       7.79087740098243
Pt       4.15724418536358       2.40221265767421       7.78986558550667
Pt       9.70154310568149       5.60130325227998       5.52585419753982
Pt       6.92931399363019       0.80051830515098       5.52787784849134
Pt       8.31542854965584       3.20091077871548       5.52686602301558
Pt       4.15782652327696       5.60173102328711       5.52503309851263
Pt       1.38559741122566       0.80094608615812       5.52705673946415
Pt       2.77171196725131       3.20133854972262       5.52604492398839
Pt       6.92968481447922       5.60151713278355       5.52544365302622
Pt       4.15745570242792       0.80073219565455       5.52746729397775
Pt       5.54357025845357       3.20112466921905       5.52645546850199
Pt       6.92989634154351       4.00003667076402       3.26303536149730
Pt       8.31601089756917       6.40042914432852       3.26202354602154
Pt       5.54378177551786       1.59964419719952       3.26404718697306
Pt       9.70175462274577       3.99982279026045       3.26344591601089
Pt      11.08786917877142       6.40021525382495       3.26243409053513
Pt       8.31564006672012       1.59943031669595       3.26445774148665
Pt       4.15803804034125       4.00025056126758       3.26262481698370
Pt       5.54415259636690       6.40064302483208       3.26161299150794
Pt       2.77192348431559       1.59985808770309       3.26363663245947
Pt       1.38639116620957       2.39871559974452       1.00094200093758
Pt       5.54436411343124       4.79916257281242       0.99921470997901
Pt       6.93024576947646       7.19969011634287       1.00043295450637
Pt       4.15824955740558       2.39877009924792       1.00022652545478
Pt       8.31622241463350       4.79894868230885       0.99962525449261
Pt       9.70210406067873       7.19947623583930       1.00084350901996
Pt       6.93010785860785       2.39855620874435       1.00063707996837
Pt       2.77250583222898       4.79937645321599       0.99880415546542
Pt       4.15838747827420       7.19990400674644       1.00002239999278
VEC1       8.31557574680000       0.00000000000000       0.00000000000000
VEC2       4.15778787340000       7.20149984380000       0.00000000000000
VEC3       0.00000000000000       0.00000000000000      20.00000000000000
37
Id 5 Energy(hartree)     -7.27860694
O        8.31488782642381       1.60173365271942       8.92708274453997
Pt       8.31521697888557       4.80239118127184       7.78926430681371
Pt       5.54298795080188       0.00160638058219       7.79128793324662
Pt       6.92910246484372       2.40199878092702       7.79027612003017
Pt      11.08707529567959       4.80244568052713       7.78854883358625
Pt       8.31484626759591       0.00166087963748       7.79057245001916
Pt       9.70096067164712       2.40178490016778       7.79068666679729
Pt       5.54335877208218       4.80260506203108       7.78885377004659
Pt       2.77112974399848       0.00182027114143       7.79087738647950
Pt       4.15724425804033       2.40221267148626       7.78986558326304
Pt       9.70154300352411       5.60130318340191       5.52585420130466
Pt       6.92931397544042       0.80051838271226       5.52787782773756
Pt       8.31542848948227       3.20091078305709       5.52686601452111
Pt       4.15782658991733       5.60173095492040       5.52503311777041
Pt       1.38559756183364       0.80094616423074       5.52705673420332
Pt       2.77171207587548       3.20133855457557       5.52604493098686
Pt       6.92968479672072       5.60151706416115       5.52544366453753
Pt       4.15745576863703       0.80073227347150       5.52746728097044
Pt       5.54357028267887       3.20112467381633       5.52645546775399
Pt       6.92989631731734       4.00003666614659       3.26303536224493
Pt       8.31601083135918       6.40042906649142       3.26202355902848
Pt       5.54378179327549       1.59964426580177       3.26404717546138
Pt       9.70175451412073       3.99982278538735       3.26344590901206
Pt      11.08786902816257       6.40021517573218       3.26243409579560
Pt       8.31564000007888       1.59943038504253       3.26445772222851
Pt       4.15803810051394       4.00025055690583       3.26262482547781
Pt       5.54415261455579       6.40064294725066       3.26161301226135
Pt       2.77192358647210       1.59985815656101       3.26363662869426
Pt       1.38639130431662       2.39871565963579       1.00094200641267
Pt       5.54436412515249       4.79916255923590       0.99921471996875
Pt       6.93024573922015       7.19969002953171       1.00043297675697
Pt       4.15824961111064       2.39877015889108       1.00022652318521
Pt       8.31622234195589       4.79894866847666       0.99962525673588
Pt       9.70210394602354       7.19947614877247       1.00084352352410
Pt       6.93010782791404       2.39855626813184       1.00063706995233
Pt       2.77250592834910       4.79937643979514       0.99880417320163
Pt       4.15838753241676       7.19990392009095       1.00002242998985
VEC1       8.31557574680000       0.00000000000000       0.00000000000000
VEC2       4.15778787340000       7.20149984380000       0.00000000000000
VEC3       0.00000000000000       0.00000000000000      20.00000000000000
37
Id 6 Energy(hartree)     -7.27859944
O        9.70138882409730       4.00309962343155       8.92605635888797
Pt       8.31521687147372       4.80239106214524       7.78926431135214
Pt       5.54298801132526       0.00160655433428       7.79128788874782
Pt       6.92910244139950       2.40199880823976       7.79027610004998
Pt      11.08707501946377       4.80244556090432       7.78854882263534
Pt       8.31484615931530       0.00166105269335       7.79057239003102
Pt       9.70096047940514       2.40178492696917       7.79068663132416
Pt       5.54335883346807       4.80260494341583       7.78885379007795
Pt       2.77112997331960       0.00182044520486       7.79087735747363
Pt       4.15724440339384       2.40221269911034       7.78986557877579
Pt       9.70154279920938       5.60130304564577       5.52585420883435
Pt       6.92931393906091       0.80051853783481       5.52787778623002
Pt       8.31542836913514       3.20091079174029       5.52686599753218
Pt       4.15782672319807       5.60173081818695       5.52503315628597
Pt       1.38559786304960       0.80094632037598       5.52705672368165
Pt       2.77171229312383       3.20133856428147       5.52604494498381
Pt       6.92968476120372       5.60151692691636       5.52544368756016
Pt       4.15745590105525       0.80073242910540       5.52746725495584
Pt       5.54357033112949       3.20112468301088       5.52645546625800
Pt       6.92989626886500       4.00003665691174       3.26303536374020
Pt       8.31601069893923       6.40042891081723       3.26202358504237
Pt       5.54378182879076       1.59964440300626       3.26404715243804
Pt       9.70175429687065       3.99982277564116       3.26344589501439
Pt      11.08786872694488       6.40021501954664       3.26243410631655
Pt       8.31563986679641       1.59943052173568       3.26445768371223
Pt       4.15803822085934       4.00025054818233       3.26262484246602
Pt       5.54415265093358       6.40064279208781       3.26161305376818
Pt       2.77192379078511       1.59985829427685       3.26363662116386
Pt       1.38639158053072       2.39871577941831       1.00094201736286
Pt       5.54436414859499       4.79916253208287       0.99921473994822
Pt       6.93024567870753       7.19968985590940       1.00043302125818
Pt       4.15824971852076       2.39877027817738       1.00022651864606
Pt       8.31622219660064       4.79894864081228       0.99962526122241
Pt       9.70210371671318       7.19947597463881       1.00084355253236
Pt       6.93010776652641       2.39855638690680       1.00063704992025
Pt       2.77250612058934       4.79937641295346       0.99880420867404
Pt       4.15838764070188       7.19990374677999       1.00002248998400
VEC1       8.31557574680000       0.00000000000000       0.00000000000000
VEC2       4.15778787340000       7.20149984380000       0.00000000000000
VEC3       0.00000000000000       0.00000000000000      20.00000000000000
37
Id 7 Energy(hartree)     -7.27859582
O        5.54313301110558       6.40167299309523       8.92667827517450
Pt       8.31521692517965       4.80239112170854       7.78926430908292
Pt       5.54298798106357       0.00160646745823       7.79128791099722
Pt       6.92910245312161       2.40199879458339       7.79027611004007
Pt      11.08707515757168       4.80244562071573       7.78854882811080
Pt       8.31484621345561       0.00166096616542       7.79057242002509
Pt       9.70096057552613       2.40178491356847       7.79068664906073
Pt       5.54335880277513       4.80260500272346       7.78885378006227
Pt       2.77112985865905       0.00182035817315       7.79087737197656
Pt       4.15724433071709       2.40221268529830       7.78986558101942
Pt       9.70154290136675       5.60130311452384       5.52585420506950
Pt       6.92931395725067       0.80051846027353       5.52787780698379
Pt       8.31542842930870       3.20091078739869       5.52686600602665
Pt       4.15782665655770       5.60173088655367       5.52503313702819
Pt       1.38559771244162       0.80094624230336       5.52705672894248
Pt       2.77171218449966       3.20133855942852       5.52604493798534
Pt       6.92968477896222       5.60151699553876       5.52544367604885
Pt       4.15745583484614       0.80073235128845       5.52746726796314
Pt       5.54357030690419       3.20112467841360       5.52645546700599
Pt       6.92989629309117       4.00003666152917       3.26303536299257
Pt       8.31601076514920       6.40042898865432       3.26202357203542
Pt       5.54378181103313       1.59964433440402       3.26404716394971
Pt       9.70175440549569       3.99982278051426       3.26344590201322
Pt      11.08786887755374       6.40021509763941       3.26243410105607
Pt       8.31563993343765       1.59943045338910       3.26445770297037
Pt       4.15803816068665       4.00025055254408       3.26262483397191
Pt       5.54415263274468       6.40064286966924       3.26161303301477
Pt       2.77192368862861       1.59985822541893       3.26363662492906
Pt       1.38639144242367       2.39871571952704       1.00094201188777
Pt       5.54436413687374       4.79916254565938       0.99921472995849
Pt       6.93024570896384       7.19968994272056       1.00043299900758
Pt       4.15824966481570       2.39877021853423       1.00022652091563
Pt       8.31622226927827       4.79894865464447       0.99962525897914
Pt       9.70210383136837       7.19947606170564       1.00084353802823
Pt       6.93010779722022       2.39855632751931       1.00063705993629
Pt       2.77250602446922       4.79937642637430       0.99880419093784
Pt       4.15838758655932       7.19990383343547       1.00002245998693
VEC1       8.31557574680000       0.00000000000000       0.00000000000000
VEC2       4.15778787340000       7.20149984380000       0.00000000000000
VEC3       0.00000000000000       0.00000000000000      20.00000000000000
37
Id 8 Energy(hartree)     -7.27858493
O        6.92897615625350       4.00292387024869       8.92602892919557
Pt       8.31521703259150       4.80239124083514       7.78926430454450
Pt       5.54298792054020       0.00160629370615       7.79128795549603
Pt       6.92910247656584       2.40199876727065       7.79027613002027
Pt      11.08707543378751       4.80244574033854       7.78854883906170
Pt       8.31484632173621       0.00166079310955       7.79057248001323
Pt       9.70096076776811       2.40178488676708       7.79068668453386
Pt       5.54335874138923       4.80260512133871       7.78885376003091
Pt       2.77112962933793       0.00182018410972       7.79087740098243
Pt       4.15724418536358       2.40221265767421       7.78986558550667
Pt       9.70154310568149       5.60130325227998       5.52585419753982
Pt       6.92931399363019       0.80051830515098       5.52787784849134
Pt       8.31542854965584       3.20091077871548       5.52686602301558
Pt       4.15782652327696       5.60173102328711       5.52503309851263
Pt       1.38559741122566       0.80094608615812       5.52705673946415
Pt       2.77171196725131       3.20133854972262       5.52604492398839
Pt       6.92968481447922       5.60151713278355       5.52544365302622
Pt       4.15745570242792       0.80073219565455       5.52746729397775
Pt       5.54357025845357       3.20112466921905       5.52645546850199
Pt       6.92989634154351       4.00003667076402       3.26303536149730
Pt       8.31601089756917       6.40042914432852       3.26202354602154
Pt       5.54378177551786       1.59964419719952       3.26404718697306
Pt       9.70175462274577       3.99982279026045       3.26344591601089
Pt      11.08786917877142       6.40021525382495       3.26243409053513
Pt       8.31564006672012       1.59943031669595       3.26445774148665
Pt       4.15803804034125       4.00025056126758       3.26262481698370
Pt       5.54415259636690       6.40064302483208       3.26161299150794
Pt       2.77192348431559       1.59985808770309       3.26363663245947
Pt       1.38639116620957       2.39871559974452       1.00094200093758
Pt       5.54436411343124       4.79916257281242       0.99921470997901
Pt       6.93024576947646       7.19969011634287       1.00043295450637
Pt       4.15824955740558       2.39877009924792       1.00022652545478
Pt       8.31622241463350       4.79894868230885       0.99962525449261
Pt       9.70210406067873       7.19947623583930       1.00084350901996
Pt       6.93010785860785       2.39855620874435       1.00063707996837
Pt       2.77250583222898       4.79937645321599       0.99880415546542
Pt       4.15838747827420       7.19990400674644       1.00002239999278
VEC1       8.31557574680000       0.00000000000000       0.00000000000000
VEC2       4.15778787340000       7.20149984380000       0.00000000000000
VEC3       0.00000000000000       0.00000000000000      20.00000000000000
37
Id 9 Energy(hartree)     -7.27857742
O        4.15718878587697       4.00286164197209       8.92565466032146
Pt       8.31521692517965       4.80239112170854       7.78926430908292
Pt       5.54298798106357       0.00160646745823       7.79128791099722
Pt       6.92910245312161       2.40199879458339       7.79027611004007
Pt      11.08707515757168       4.80244562071573       7.78854882811080
Pt       8.31484621345561       0.00166096616542       7.79057242002509
Pt       9.70096057552613       2.40178491356847       7.79068664906073
Pt       5.54335880277513       4.80260500272346       7.78885378006227
Pt       2.77112985865905       0.00182035817315       7.79087737197656
Pt       4.15724433071709       2.40221268529830       7.78986558101942
Pt       9.70154290136675       5.60130311452384       5.52585420506950
Pt       6.92931395725067       0.80051846027353       5.52787780698379
Pt       8.31542842930870       3.20091078739869       5.52686600602665
Pt       4.15782665655770       5.60173088655367       5.52503313702819
Pt       1.38559771244162       0.80094624230336       5.52705672894248
Pt       2.77171218449966       3.20133855942852       5.52604493798534
Pt       6.92968477896222       5.60151699553876       5.52544367604885
Pt       4.15745583484614       0.80073235128845       5.52746726796314
Pt       5.54357030690419       3.20112467841360       5.52645546700599
Pt       6.92989629309117       4.00003666152917       3.26303536299257
Pt       8.31601076514920       6.40042898865432       3.26202357203542
Pt       5.54378181103313       1.59964433440402       3.26404716394971
Pt       9.70175440549569       3.99982278051426       3.26344590201322
Pt      11.08786887755374       6.40021509763941       3.26243410105607
Pt       8.31563993343765       1.59943045338910       3.26445770297037
Pt       4.15803816068665       4.00025055254408       3.26262483397191
Pt       5.54415263274468       6.40064286966924       3.26161303301477
Pt       2.77192368862861       1.59985822541893       3.26363662492906
Pt       1.38639144242367       2.39871571952704       1.00094201188777
Pt       5.54436413687374       4.79916254565938       0.99921472995849
Pt       6.93024570896384       7.19968994272056       1.00043299900758
Pt       4.15824966481570       2.39877021853423       1.00022652091563
Pt       8.31622226927827       4.79894865464447       0.99962525897914
Pt       9.70210383136837       7.19947606170564       1.00084353802823
Pt       6.93010779722022       2.39855632751931       1.00063705993629
Pt       2.77250602446922       4.79937642637430       0.99880419093784
Pt       4.15838758655932       7.19990383343547       1.00002245998693
VEC1       8.31557574680000       0.00000000000000       0.00000000000000
VEC2       4.15778787340000       7.20149984380000       0.00000000000000
VEC3       0.00000000000000       0.00000000000000      20.00000000000000
37
Id 10 Energy(hartree)     -7.27133727
O        8.31501621201186       3.20296899091330       8.91902871030927
Pt       8.31521692517965       4.80239112170854       7.78926430908292
Pt       5.54298798106357       0.00160646745823       7.79128791099722
Pt       6.92910245312161       2.40199879458339       7.79027611004007
Pt      11.08707515757168       4.80244562071573       7.78854882811080
Pt       8.31484621345561       0.00166096616542       7.79057242002509
Pt       9.70096057552613       2.40178491356847       7.79068664906073
Pt       5.54335880277513       4.80260500272346       7.78885378006227
Pt       2.77112985865905       0.00182035817315       7.79087737197656
Pt       4.15724433071709       2.40221268529830       7.78986558101942
Pt       9.70154290136675       5.60130311452384       5.52585420506950
Pt       6.92931395725067       0.80051846027353       5.52787780698379
Pt       8.31542842930870       3.20091078739869       5.52686600602665
Pt       4.15782665655770       5.60173088655367       5.52503313702819
Pt       1.38559771244162       0.80094624230336       5.52705672894248
Pt       2.77171218449966       3.20133855942852       5.52604493798534
Pt       6.92968477896222       5.60151699553876       5.52544367604885
Pt       4.15745583484614       0.80073235128845       5.52746726796314
Pt       5.54357030690419       3.20112467841360       5.52645546700599
Pt       6.92989629309117       4.00003666152917       3.26303536299257
Pt       8.31601076514920       6.40042898865432       3.26202357203542
Pt       5.54378181103313       1.59964433440402       3.26404716394971
Pt       9.70175440549569       3.99982278051426       3.26344590201322
Pt      11.08786887755374       6.40021509763941       3.26243410105607
Pt       8.31563993343765       1.59943045338910       3.26445770297037
Pt       4.15803816068665       4.00025055254408       3.26262483397191
Pt       5.54415263274468       6.40064286966924       3.26161303301477
Pt       2.77192368862861       1.59985822541893       3.26363662492906
Pt       1.38639144242367       2.39871571952704       1.00094201188777
Pt       5.54436413687374       4.79916254565938       0.99921472995849
Pt       6.93024570896384       7.19968994272056       1.00043299900758
Pt       4.15824966481570       2.39877021853423       1.00022652091563
Pt       8.31622226927827       4.79894865464447       0.99962525897914
Pt       9.70210383136837       7.19947606170564       1.00084353802823
Pt       6.93010779722022       2.39855632751931       1.00063705993629
Pt       2.77250602446922       4.79937642637430       0.99880419093784
Pt       4.15838758655932       7.19990383343547       1.00002245998693
VEC1       8.31557574680000       0.00000000000000       0.00000000000000
VEC2       4.15778787340000       7.20149984380000       0.00000000000000
VEC3       0.00000000000000       0.00000000000000      20.00000000000000
37
Id 11 Energy(hartree)     -7.27132217
O        1.38524135771229       0.80196284082910       8.91972317664929
Pt       8.31521692517965       4.80239112170854       7.78926430908292
Pt       5.54298798106357       0.00160646745823       7.79128791099722
Pt       6.92910245312161       2.40199879458339       7.79027611004007
Pt      11.08707515757168       4.80244562071573       7.78854882811080
Pt       8.31484621345561       0.00166096616542       7.79057242002509
Pt       9.70096057552613       2.40178491356847       7.79068664906073
Pt       5.54335880277513       4.80260500272346       7.78885378006227
Pt       2.77112985865905       0.00182035817315       7.79087737197656
Pt       4.15724433071709       2.40221268529830       7.78986558101942
Pt       9.70154290136675       5.60130311452384       5.52585420506950
Pt       6.92931395725067       0.80051846027353       5.52787780698379
Pt       8.31542842930870       3.20091078739869       5.52686600602665
Pt       4.15782665655770       5.60173088655367       5.52503313702819
Pt       1.38559771244162       0.80094624230336       5.52705672894248
Pt       2.77171218449966       3.20133855942852       5.52604493798534
Pt       6.92968477896222       5.60151699553876       5.52544367604885
Pt       4.15745583484614       0.80073235128845       5.52746726796314
Pt       5.54357030690419       3.20112467841360       5.52645546700599
Pt       6.92989629309117       4.00003666152917       3.26303536299257
Pt       8.31601076514920       6.40042898865432       3.26202357203542
Pt       5.54378181103313       1.59964433440402       3.26404716394971
Pt       9.70175440549569       3.99982278051426       3.26344590201322
Pt      11.08786887755374       6.40021509763941       3.26243410105607
Pt       8.31563993343765       1.59943045338910       3.26445770297037
Pt       4.15803816068665       4.00025055254408       3.26262483397191
Pt       5.54415263274468       6.40064286966924       3.26161303301477
Pt       2.77192368862861       1.59985822541893       3.26363662492906
Pt       1.38639144242367       2.39871571952704       1.00094201188777
Pt       5.54436413687374       4.79916254565938       0.99921472995849
Pt       6.93024570896384       7.19968994272056       1.00043299900758
Pt       4.15824966481570       2.39877021853423       1.00022652091563
Pt       8.31622226927827       4.79894865464447       0.99962525897914
Pt       9.70210383136837       7.19947606170564       1.00084353802823
Pt       6.93010779722022       2.39855632751931       1.00063705993629
Pt       2.77250602446922       4.79937642637430       0.99880419093784
Pt       4.15838758655932       7.19990383343547       1.00002245998693
VEC1       8.31557574680000       0.00000000000000       0.00000000000000
VEC2       4.15778787340000       7.20149984380000       0.00000000000000
VEC3       0.00000000000000       0.00000000000000      20.00000000000000
37
Id 12 Energy(hartree)     -7.27131486
O        2.77189024033567       3.20341458984570       8.91863897546975
Pt       8.31521697888557       4.80239118127184       7.78926430681371
Pt       5.54298795080188       0.00160638058219       7.79128793324662
Pt       6.92910246484372       2.40199878092702       7.79027612003017
Pt      11.08707529567959       4.80244568052713       7.78854883358625
Pt       8.31484626759591       0.00166087963748       7.79057245001916
Pt       9.70096067164712       2.40178490016778       7.79068666679729
Pt       5.54335877208218       4.80260506203108       7.78885377004659
Pt       2.77112974399848       0.00182027114143       7.79087738647950
Pt       4.15724425804033       2.40221267148626       7.78986558326304
Pt       9.70154300352411       5.60130318340191       5.52585420130466
Pt       6.92931397544042       0.80051838271226       5.52787782773756
Pt       8.31542848948227       3.20091078305709       5.52686601452111
Pt       4.15782658991733       5.60173095492040       5.52503311777041
Pt       1.38559756183364       0.80094616423074       5.52705673420332
Pt       2.77171207587548       3.20133855457557       5.52604493098686
Pt       6.92968479672072       5.60151706416115       5.52544366453753
Pt       4.15745576863703       0.80073227347150       5.52746728097044
Pt       5.54357028267887       3.20112467381633       5.52645546775399
Pt       6.92989631731734       4.00003666614659       3.26303536224493
Pt       8.31601083135918       6.40042906649142       3.26202355902848
Pt       5.54378179327549       1.59964426580177       3.26404717546138
Pt       9.70175451412073       3.99982278538735       3.26344590901206
Pt      11.08786902816257       6.40021517573218       3.26243409579560
Pt       8.31564000007888       1.59943038504253       3.26445772222851
Pt       4.15803810051394       4.00025055690583       3.26262482547781
Pt       5.54415261455579       6.40064294725066       3.26161301226135
Pt       2.77192358647210       1.59985815656101       3.26363662869426
Pt       1.38639130431662       2.39871565963579       1.00094200641267
Pt       5.54436412515249       4.79916255923590       0.99921471996875
Pt       6.93024573922015       7.19969002953171       1.00043297675697
Pt       4.15824961111064       2.39877015889108       1.00022652318521
Pt       8.31622234195589       4.79894866847666       0.99962525673588
Pt       9.70210394602354       7.19947614877247       1.00084352352410
Pt       6.93010782791404       2.39855626813184       1.00063706995233
Pt       2.77250592834910       4.79937643979514       0.99880417320163
Pt       4.15838753241676       7.19990392009095       1.00002242998985
VEC1       8.31557574680000       0.00000000000000       0.00000000000000
VEC2       4.15778787340000       7.20149984380000       0.00000000000000
VEC3       0.00000000000000       0.00000000000000      20.00000000000000
37
Id 13 Energy(hartree)     -7.27131131
O        6.92937155952193       0.80199685192485       8.91975985099844
Pt       8.31521703259150       4.80239124083514       7.78926430454450
Pt       5.54298792054020       0.00160629370615       7.79128795549603
Pt       6.92910247656584       2.40199876727065       7.79027613002027
Pt      11.08707543378751       4.80244574033854       7.78854883906170
Pt       8.31484632173621       0.00166079310955       7.79057248001323
Pt       9.70096076776811       2.40178488676708       7.79068668453386
Pt       5.54335874138923       4.80260512133871       7.78885376003091
Pt       2.77112962933793       0.00182018410972       7.79087740098243
Pt       4.15724418536358       2.40221265767421       7.78986558550667
Pt       9.70154310568149       5.60130325227998       5.52585419753982
Pt       6.92931399363019       0.80051830515098       5.52787784849134
Pt       8.31542854965584       3.20091077871548       5.52686602301558
Pt       4.15782652327696       5.60173102328711       5.52503309851263
Pt       1.38559741122566       0.80094608615812       5.52705673946415
Pt       2.77171196725131       3.20133854972262       5.52604492398839
Pt       6.92968481447922       5.60151713278355       5.52544365302622
Pt       4.15745570242792       0.80073219565455       5.52746729397775
Pt       5.54357025845357       3.20112466921905       5.52645546850199
Pt       6.92989634154351       4.00003667076402       3.26303536149730
Pt       8.31601089756917       6.40042914432852       3.26202354602154
Pt       5.54378177551786       1.59964419719952       3.26404718697306
Pt       9.70175462274577       3.99982279026045       3.26344591601089
Pt      11.08786917877142       6.40021525382495       3.26243409053513
Pt       8.31564006672012       1.59943031669595       3.26445774148665
Pt       4.15803804034125       4.00025056126758       3.26262481698370
Pt       5.54415259636690       6.40064302483208       3.26161299150794
Pt       2.77192348431559       1.59985808770309       3.26363663245947
Pt       1.38639116620957       2.39871559974452       1.00094200093758
Pt       5.54436411343124       4.79916257281242       0.99921470997901
Pt       6.93024576947646       7.19969011634287       1.00043295450637
Pt       4.15824955740558       2.39877009924792       1.00022652545478
Pt       8.31622241463350       4.79894868230885       0.99962525449261
Pt       9.70210406067873       7.19947623583930       1.00084350901996
Pt       6.93010785860785       2.39855620874435       1.00063707996837
Pt       2.77250583222898       4.79937645321599       0.99880415546542
Pt       4.15838747827420       7.19990400674644       1.00002239999278
VEC1       8.31557574680000       0.00000000000000       0.00000000000000
VEC2       4.15778787340000       7.20149984380000       0.00000000000000
VEC3       0.00000000000000       0.00000000000000      20.00000000000000
37
Id 14 Energy(hartree)     -7.27130447
O        5.54297984065211       3.20318388237635       8.91862511031538
Pt       8.31521708629742       4.80239130039845       7.78926430227529
Pt       5.54298789027851       0.00160620683011       7.79128797774543
Pt       6.92910248828797       2.40199875361428       7.79027614001036
Pt      11.08707557189543       4.80244580014995       7.78854884453716
Pt       8.31484637587652       0.00166070658161       7.79057251000730
Pt       9.70096086388910       2.40178487336638       7.79068670227043
Pt       5.54335871069629       4.80260518064634       7.78885375001523
Pt       2.77112951467738       0.00182009707800       7.79087741548537
Pt       4.15724411268683       2.40221264386217       7.78986558775030
Pt       9.70154320783887       5.60130332115805       5.52585419377497
Pt       6.92931401181995       0.80051822758971       5.52787786924511
Pt       8.31542860982940       3.20091077437388       5.52686603151004
Pt       4.15782645663660       5.60173109165384       5.52503307925485
Pt       1.38559726061768       0.80094600808550       5.52705674472498
Pt       2.77171185862714       3.20133854486967       5.52604491698991
Pt       6.92968483223773       5.60151720140594       5.52544364151491
Pt       4.15745563621881       0.80073211783760       5.52746730698505
Pt       5.54357023422827       3.20112466462177       5.52645546924998
Pt       6.92989636576968       4.00003667538144       3.26303536074966
Pt       8.31601096377914       6.40042922216561       3.26202353301459
Pt       5.54378175776023       1.59964412859727       3.26404719848473
Pt       9.70175473137081       3.99982279513355       3.26344592300972
Pt      11.08786932938027       6.40021533191772       3.26243408527465
Pt       8.31564013336136       1.59943024834938       3.26445776074480
Pt       4.15803798016855       4.00025056562934       3.26262480848960
Pt       5.54415257817801       6.40064310241351       3.26161297075453
Pt       2.77192338215909       1.59985801884517       3.26363663622467
Pt       1.38639102810252       2.39871553985327       1.00094199546248
Pt       5.54436410170999       4.79916258638894       0.99921469998928
Pt       6.93024579973277       7.19969020315402       1.00043293225577
Pt       4.15824950370054       2.39877003960477       1.00022652772435
Pt       8.31622248731112       4.79894869614104       0.99962525224934
Pt       9.70210417533391       7.19947632290613       1.00084349451583
Pt       6.93010788930167       2.39855614935688       1.00063708998442
Pt       2.77250573610886       4.79937646663683       0.99880413772922
Pt       4.15838742413164       7.19990409340192       1.00002236999570
VEC1       8.31557574680000       0.00000000000000       0.00000000000000
VEC2       4.15778787340000       7.20149984380000       0.00000000000000
VEC3       0.00000000000000       0.00000000000000      20.00000000000000
37
Id 15 Energy(hartree)     -7.27129545
O        4.15690749342240       0.80240712619031       8.91971880417022
Pt       8.31521708629742       4.80239130039845       7.78926430227529
Pt       5.54298789027851       0.00160620683011       7.79128797774543
Pt       6.92910248828797       2.40199875361428       7.79027614001036
Pt      11.08707557189543       4.80244580014995       7.78854884453716
Pt       8.31484637587652       0.00166070658161       7.79057251000730
Pt       9.70096086388910       2.40178487336638       7.79068670227043
Pt       5.54335871069629       4.80260518064634       7.78885375001523
Pt       2.77112951467738       0.00182009707800       7.79087741548537
Pt       4.15724411268683       2.40221264386217       7.78986558775030
Pt       9.70154320783887       5.60130332115805       5.52585419377497
Pt       6.92931401181995       0.80051822758971       5.52787786924511
Pt       8.31542860982940       3.20091077437388       5.52686603151004
Pt       4.15782645663660       5.60173109165384       5.52503307925485
Pt       1.38559726061768       0.80094600808550       5.52705674472498
Pt       2.77171185862714       3.20133854486967       5.52604491698991
Pt       6.92968483223773       5.60151720140594       5.52544364151491
Pt       4.15745563621881       0.80073211783760       5.52746730698505
Pt       5.54357023422827       3.20112466462177       5.52645546924998
Pt       6.92989636576968       4.00003667538144       3.26303536074966
Pt       8.31601096377914       6.40042922216561       3.26202353301459
Pt       5.54378175776023       1.59964412859727       3.26404719848473
Pt       9.70175473137081       3.99982279513355       3.26344592300972
Pt      11.08786932938027       6.40021533191772       3.26243408527465
Pt       8.31564013336136       1.59943024834938       3.26445776074480
Pt       4.15803798016855       4.00025056562934       3.26262480848960
Pt       5.54415257817801       6.40064310241351       3.26161297075453
Pt       2.77192338215909       1.59985801884517       3.26363663622467
Pt       1.38639102810252       2.39871553985327       1.00094199546248
Pt       5.54436410170999       4.79916258638894       0.99921469998928
Pt       6.93024579973277       7.19969020315402       1.00043293225577
Pt       4.15824950370054       2.39877003960477       1.00022652772435
Pt       8.31622248731112       4.79894869614104       0.99962525224934
Pt       9.70210417533391       7.19947632290613       1.00084349451583
Pt       6.93010788930167       2.39855614935688       1.00063708998442
Pt       2.77250573610886       4.79937646663683       0.99880413772922
Pt       4.15838742413164       7.19990409340192       1.00002236999570
VEC1       8.31557574680000       0.00000000000000       0.00000000000000
VEC2       4.15778787340000       7.20149984380000       0.00000000000000
VEC3       0.00000000000000       0.00000000000000      20.00000000000000
37
Id 16 Energy(hartree)     -7.27128198
O        6.92874485027915       5.60173612226463       8.91862271577124
Pt       8.31521697888557       4.80239118127184       7.78926430681371
Pt       5.54298795080188       0.00160638058219       7.79128793324662
Pt       6.92910246484372       2.40199878092702       7.79027612003017
Pt      11.08707529567959       4.80244568052713       7.78854883358625
Pt       8.31484626759591       0.00166087963748       7.79057245001916
Pt       9.70096067164712       2.40178490016778       7.79068666679729
Pt       5.54335877208218       4.80260506203108       7.78885377004659
Pt       2.77112974399848       0.00182027114143       7.79087738647950
Pt       4.15724425804033       2.40221267148626       7.78986558326304
Pt       9.70154300352411       5.60130318340191       5.52585420130466
Pt       6.92931397544042       0.80051838271226       5.52787782773756
Pt       8.31542848948227       3.20091078305709       5.52686601452111
Pt       4.15782658991733       5.60173095492040       5.52503311777041
Pt       1.38559756183364       0.80094616423074       5.52705673420332
Pt       2.77171207587548       3.20133855457557       5.52604493098686
Pt       6.92968479672072       5.60151706416115       5.52544366453753
Pt       4.15745576863703       0.80073227347150       5.52746728097044
Pt       5.54357028267887       3.20112467381633       5.52645546775399
Pt       6.92989631731734       4.00003666614659       3.26303536224493
Pt       8.31601083135918       6.40042906649142       3.26202355902848
Pt       5.54378179327549       1.59964426580177       3.26404717546138
Pt       9.70175451412073       3.99982278538735       3.26344590901206
Pt      11.08786902816257       6.40021517573218       3.26243409579560
Pt       8.31564000007888       1.59943038504253       3.26445772222851
Pt       4.15803810051394       4.00025055690583       3.26262482547781
Pt       5.54415261455579       6.40064294725066       3.26161301226135
Pt       2.77192358647210       1.59985815656101       3.26363662869426
Pt       1.38639130431662       2.39871565963579       1.00094200641267
Pt       5.54436412515249       4.79916255923590       0.99921471996875
Pt       6.93024573922015       7.19969002953171       1.00043297675697
Pt       4.15824961111064       2.39877015889108       1.00022652318521
Pt       8.31622234195589       4.79894866847666       0.99962525673588
Pt       9.70210394602354       7.19947614877247       1.00084352352410
Pt       6.93010782791404       2.39855626813184       1.00063706995233
Pt       2.77250592834910       4.79937643979514       0.99880417320163
Pt       4.15838753241676       7.19990392009095       1.00002242998985
VEC1       8.31557574680000       0.00000000000000       0.00000000000000
VEC2       4.15778787340000       7.20149984380000       0.00000000000000
VEC3       0.00000000000000       0.00000000000000      20.00000000000000
37
Id 17 Energy(hartree)     -7.27127644
O        9.70123868864846       5.60127594169822       8.91867566358025
Pt       8.31521681776780       4.80239100258194       7.78926431362135
Pt       5.54298804158695       0.00160664121031       7.79128786649841
Pt       6.92910242967737       2.40199882189613       7.79027609005988
Pt      11.08707488135585       4.80244550109291       7.78854881715989
Pt       8.31484610517500       0.00166113922129       7.79057236003695
Pt       9.70096038328416       2.40178494036986       7.79068661358760
Pt       5.54335886416102       4.80260488410820       7.78885380009363
Pt       2.77113008798016       0.00182053223658       7.79087734297069
Pt       4.15724447607059       2.40221271292239       7.78986557653216
Pt       9.70154269705200       5.60130297676770       5.52585421259919
Pt       6.92931392087115       0.80051861539608       5.52787776547625
Pt       8.31542830896157       3.20091079608189       5.52686598903772
Pt       4.15782678983843       5.60173074982022       5.52503317554376
Pt       1.38559801365758       0.80094639844860       5.52705671842082
Pt       2.77171240174801       3.20133856913441       5.52604495198228
Pt       6.92968474344522       5.60151685829396       5.52544369907147
Pt       4.15745596726436       0.80073250692234       5.52746724194854
Pt       5.54357035535479       3.20112468760815       5.52645546551000
Pt       6.92989624463883       4.00003665229432       3.26303536448784
Pt       8.31601063272925       6.40042883298013       3.26202359804931
Pt       5.54378184654839       1.59964447160851       3.26404714092637
Pt       9.70175418824561       3.99982277076806       3.26344588801556
Pt      11.08786857633604       6.40021494145387       3.26243411157702
Pt       8.31563980015518       1.59943059008225       3.26445766445409
Pt       4.15803828103204       4.00025054382058       3.26262485096012
Pt       5.54415266912247       6.40064271450639       3.26161307452159
Pt       2.77192389294161       1.59985836313477       3.26363661739865
Pt       1.38639171863776       2.39871583930956       1.00094202283795
Pt       5.54436416031624       4.79916251850635       0.99921474993796
Pt       6.93024564845122       7.19968976909825       1.00043304350878
Pt       4.15824977222581       2.39877033782054       1.00022651637649
Pt       8.31622212392303       4.79894862698009       0.99962526346568
Pt       9.70210360205800       7.19947588757199       1.00084356703649
Pt       6.93010773583260       2.39855644629428       1.00063703990421
Pt       2.77250621670946       4.79937639953261       0.99880422641024
Pt       4.15838769484444       7.19990366012451       1.00002251998107
VEC1       8.31557574680000       0.00000000000000       0.00000000000000
VEC2       4.15778787340000       7.20149984380000       0.00000000000000
VEC3       0.00000000000000       0.00000000000000      20.00000000000000
37
Id 18 Energy(hartree)     -7.27127535
O        4.15700570504449       5.60168773741391       8.91828255392782
Pt       8.31521687147372       4.80239106214524       7.78926431135214
Pt       5.54298801132526       0.00160655433428       7.79128788874782
Pt       6.92910244139950       2.40199880823976       7.79027610004998
Pt      11.08707501946377       4.80244556090432       7.78854882263534
Pt       8.31484615931530       0.00166105269335       7.79057239003102
Pt       9.70096047940514       2.40178492696917       7.79068663132416
Pt       5.54335883346807       4.80260494341583       7.78885379007795
Pt       2.77112997331960       0.00182044520486       7.79087735747363
Pt       4.15724440339384       2.40221269911034       7.78986557877579
Pt       9.70154279920938       5.60130304564577       5.52585420883435
Pt       6.92931393906091       0.80051853783481       5.52787778623002
Pt       8.31542836913514       3.20091079174029       5.52686599753218
Pt       4.15782672319807       5.60173081818695       5.52503315628597
Pt       1.38559786304960       0.80094632037598       5.52705672368165
Pt       2.77171229312383       3.20133856428147       5.52604494498381
Pt       6.92968476120372       5.60151692691636       5.52544368756016
Pt       4.15745590105525       0.80073242910540       5.52746725495584
Pt       5.54357033112949       3.20112468301088       5.52645546625800
Pt       6.92989626886500       4.00003665691174       3.26303536374020
Pt       8.31601069893923       6.40042891081723       3.26202358504237
Pt       5.54378182879076       1.59964440300626       3.26404715243804
Pt       9.70175429687065       3.99982277564116       3.26344589501439
Pt      11.08786872694488       6.40021501954664       3.26243410631655
Pt       8.31563986679641       1.59943052173568       3.26445768371223
Pt       4.15803822085934       4.00025054818233       3.26262484246602
Pt       5.54415265093358       6.40064279208781       3.26161305376818
Pt       2.77192379078511       1.59985829427685       3.26363662116386
Pt       1.38639158053072       2.39871577941831       1.00094201736286
Pt       5.54436414859499       4.79916253208287       0.99921473994822
Pt       6.93024567870753       7.19968985590940       1.00043302125818
Pt       4.15824971852076       2.39877027817738       1.00022651864606
[...]
Pt       4.15724425804033       2.40221267148626       7.78986558326304
Pt       9.70154300352411       5.60130318340191       5.52585420130466
Pt       6.92931397544042       0.80051838271226       5.52787782773756
Pt       8.31542848948227       3.20091078305709       5.52686601452111
Pt       4.15782658991733       5.60173095492040       5.52503311777041
Pt       1.38559756183364       0.80094616423074       5.52705673420332
Pt       2.77171207587548       3.20133855457557       5.52604493098686
Pt       6.92968479672072       5.60151706416115       5.52544366453753
Pt       4.15745576863703       0.80073227347150       5.52746728097044
Pt       5.54357028267887       3.20112467381633       5.52645546775399
Pt       6.92989631731734       4.00003666614659       3.26303536224493
Pt       8.31601083135918       6.40042906649142       3.26202355902848
Pt       5.54378179327549       1.59964426580177       3.26404717546138
Pt       9.70175451412073       3.99982278538735       3.26344590901206
Pt      11.08786902816257       6.40021517573218       3.26243409579560
Pt       8.31564000007888       1.59943038504253       3.26445772222851
Pt       4.15803810051394       4.00025055690583       3.26262482547781
Pt       5.54415261455579       6.40064294725066       3.26161301226135
Pt       2.77192358647210       1.59985815656101       3.26363662869426
Pt       1.38639130431662       2.39871565963579       1.00094200641267
Pt       5.54436412515249       4.79916255923590       0.99921471996875
Pt       6.93024573922015       7.19969002953171       1.00043297675697
Pt       4.15824961111064       2.39877015889108       1.00022652318521
Pt       8.31622234195589       4.79894866847666       0.99962525673588
Pt       9.70210394602354       7.19947614877247       1.00084352352410
Pt       6.93010782791404       2.39855626813184       1.00063706995233
Pt       2.77250592834910       4.79937643979514       0.99880417320163
Pt       4.15838753241676       7.19990392009095       1.00002242998985
VEC1       8.31557574680000       0.00000000000000       0.00000000000000
VEC2       4.15778787340000       7.20149984380000       0.00000000000000
VEC3       0.00000000000000       0.00000000000000      20.00000000000000
37
Id 40 Energy(hartree)     -7.25284954
O        5.54283941099011       2.61263692645013       9.08377943577854
Pt       8.31521708629742       4.80239130039845       7.78926430227529
Pt       5.54298789027851       0.00160620683011       7.79128797774543
Pt       6.92910248828797       2.40199875361428       7.79027614001036
Pt      11.08707557189543       4.80244580014995       7.78854884453716
Pt       8.31484637587652       0.00166070658161       7.79057251000730
Pt       9.70096086388910       2.40178487336638       7.79068670227043
Pt       5.54335871069629       4.80260518064634       7.78885375001523
Pt       2.77112951467738       0.00182009707800       7.79087741548537
Pt       4.15724411268683       2.40221264386217       7.78986558775030
Pt       9.70154320783887       5.60130332115805       5.52585419377497
Pt       6.92931401181995       0.80051822758971       5.52787786924511
Pt       8.31542860982940       3.20091077437388       5.52686603151004
Pt       4.15782645663660       5.60173109165384       5.52503307925485
Pt       1.38559726061768       0.80094600808550       5.52705674472498
Pt       2.77171185862714       3.20133854486967       5.52604491698991
Pt       6.92968483223773       5.60151720140594       5.52544364151491
Pt       4.15745563621881       0.80073211783760       5.52746730698505
Pt       5.54357023422827       3.20112466462177       5.52645546924998
Pt       6.92989636576968       4.00003667538144       3.26303536074966
Pt       8.31601096377914       6.40042922216561       3.26202353301459
Pt       5.54378175776023       1.59964412859727       3.26404719848473
Pt       9.70175473137081       3.99982279513355       3.26344592300972
Pt      11.08786932938027       6.40021533191772       3.26243408527465
Pt       8.31564013336136       1.59943024834938       3.26445776074480
Pt       4.15803798016855       4.00025056562934       3.26262480848960
Pt       5.54415257817801       6.40064310241351       3.26161297075453
Pt       2.77192338215909       1.59985801884517       3.26363663622467
Pt       1.38639102810252       2.39871553985327       1.00094199546248
Pt       5.54436410170999       4.79916258638894       0.99921469998928
Pt       6.93024579973277       7.19969020315402       1.00043293225577
Pt       4.15824950370054       2.39877003960477       1.00022652772435
Pt       8.31622248731112       4.79894869614104       0.99962525224934
Pt       9.70210417533391       7.19947632290613       1.00084349451583
Pt       6.93010788930167       2.39855614935688       1.00063708998442
Pt       2.77250573610886       4.79937646663683       0.99880413772922
Pt       4.15838742413164       7.19990409340192       1.00002236999570
VEC1       8.31557574680000       0.00000000000000       0.00000000000000
VEC2       4.15778787340000       7.20149984380000       0.00000000000000
VEC3       0.00000000000000       0.00000000000000      20.00000000000000
37
Id 41 Energy(hartree)     -7.25283532
O        2.77181349077755       2.61276325331868       9.08397877475152
Pt       8.31521697888557       4.80239118127184       7.78926430681371
Pt       5.54298795080188       0.00160638058219       7.79128793324662
Pt       6.92910246484372       2.40199878092702       7.79027612003017
Pt      11.08707529567959       4.80244568052713       7.78854883358625
Pt       8.31484626759591       0.00166087963748       7.79057245001916
Pt       9.70096067164712       2.40178490016778       7.79068666679729
Pt       5.54335877208218       4.80260506203108       7.78885377004659
Pt       2.77112974399848       0.00182027114143       7.79087738647950
Pt       4.15724425804033       2.40221267148626       7.78986558326304
Pt       9.70154300352411       5.60130318340191       5.52585420130466
Pt       6.92931397544042       0.80051838271226       5.52787782773756
Pt       8.31542848948227       3.20091078305709       5.52686601452111
Pt       4.15782658991733       5.60173095492040       5.52503311777041
Pt       1.38559756183364       0.80094616423074       5.52705673420332
Pt       2.77171207587548       3.20133855457557       5.52604493098686
Pt       6.92968479672072       5.60151706416115       5.52544366453753
Pt       4.15745576863703       0.80073227347150       5.52746728097044
Pt       5.54357028267887       3.20112467381633       5.52645546775399
Pt       6.92989631731734       4.00003666614659       3.26303536224493
Pt       8.31601083135918       6.40042906649142       3.26202355902848
Pt       5.54378179327549       1.59964426580177       3.26404717546138
Pt       9.70175451412073       3.99982278538735       3.26344590901206
Pt      11.08786902816257       6.40021517573218       3.26243409579560
Pt       8.31564000007888       1.59943038504253       3.26445772222851
Pt       4.15803810051394       4.00025055690583       3.26262482547781
Pt       5.54415261455579       6.40064294725066       3.26161301226135
Pt       2.77192358647210       1.59985815656101       3.26363662869426
Pt       1.38639130431662       2.39871565963579       1.00094200641267
Pt       5.54436412515249       4.79916255923590       0.99921471996875
Pt       6.93024573922015       7.19969002953171       1.00043297675697
Pt       4.15824961111064       2.39877015889108       1.00022652318521
Pt       8.31622234195589       4.79894866847666       0.99962525673588
Pt       9.70210394602354       7.19947614877247       1.00084352352410
Pt       6.93010782791404       2.39855626813184       1.00063706995233
Pt       2.77250592834910       4.79937643979514       0.99880417320163
Pt       4.15838753241676       7.19990392009095       1.00002242998985
VEC1       8.31557574680000       0.00000000000000       0.00000000000000
VEC2       4.15778787340000       7.20149984380000       0.00000000000000
VEC3       0.00000000000000       0.00000000000000      20.00000000000000
37
Id 42 Energy(hartree)     -7.25283276
O       10.21274112596474       5.89642280166883       9.08369894291496
Pt       8.31521676406188       4.80239094301863       7.78926431589056
Pt       5.54298807184863       0.00160672808635       7.79128784424901
Pt       6.92910241795525       2.40199883555249       7.79027608006979
Pt      11.08707474324794       4.80244544128150       7.78854881168443
Pt       8.31484605103469       0.00166122574922       7.79057233004288
Pt       9.70096028716317       2.40178495377056       7.79068659585104
Pt       5.54335889485396       4.80260482480057       7.78885381010931
Pt       2.77113020264072       0.00182061926829       7.79087732846776
Pt       4.15724454874734       2.40221272673443       7.78986557428853
Pt       9.70154259489463       5.60130290788963       5.52585421636403
Pt       6.92931390268138       0.80051869295735       5.52787774472248
Pt       8.31542824878801       3.20091080042349       5.52686598054325
Pt       4.15782685647880       5.60173068145350       5.52503319480153
Pt       1.38559816426556       0.80094647652122       5.52705671315998
Pt       2.77171251037218       3.20133857398736       5.52604495898076
Pt       6.92968472568672       5.60151678967157       5.52544371058278
Pt       4.15745603347347       0.80073258473929       5.52746722894123
Pt       5.54357037958009       3.20112469220543       5.52645546476201
Pt       6.92989622041265       4.00003664767690       3.26303536523548
Pt       8.31601056651927       6.40042875514303       3.26202361105625
Pt       5.54378186430603       1.59964454021076       3.26404712941470
Pt       9.70175407962057       3.99982276589496       3.26344588101672
Pt      11.08786842572719       6.40021486336110       3.26243411683750
Pt       8.31563973351394       1.59943065842882       3.26445764519595
Pt       4.15803834120474       4.00025053945883       3.26262485945423
Pt       5.54415268731136       6.40064263692497       3.26161309527500
Pt       2.77192399509811       1.59985843199269       3.26363661363345
Pt       1.38639185674481       2.39871589920082       1.00094202831305
Pt       5.54436417203749       4.79916250492983       0.99921475992770
Pt       6.93024561819491       7.19968968228709       1.00043306575938
Pt       4.15824982593087       2.39877039746369       1.00022651410692
Pt       8.31622205124541       4.79894861314790       0.99962526570894
Pt       9.70210348740282       7.19947580050516       1.00084358154063
Pt       6.93010770513878       2.39855650568176       1.00063702988817
Pt       2.77250631282958       4.79937638611177       0.99880424414645
Pt       4.15838774898699       7.19990357346902       1.00002254997813
VEC1       8.31557574680000       0.00000000000000       0.00000000000000
VEC2       4.15778787340000       7.20149984380000       0.00000000000000
VEC3       0.00000000000000       0.00000000000000      20.00000000000000
37
Id 43 Energy(hartree)     -7.25283253
O        7.44020214589699       5.89681047010604       9.08376753543411
Pt       8.31521697888557       4.80239118127184       7.78926430681371
Pt       5.54298795080188       0.00160638058219       7.79128793324662
Pt       6.92910246484372       2.40199878092702       7.79027612003017
Pt      11.08707529567959       4.80244568052713       7.78854883358625
Pt       8.31484626759591       0.00166087963748       7.79057245001916
Pt       9.70096067164712       2.40178490016778       7.79068666679729
Pt       5.54335877208218       4.80260506203108       7.78885377004659
Pt       2.77112974399848       0.00182027114143       7.79087738647950
Pt       4.15724425804033       2.40221267148626       7.78986558326304
Pt       9.70154300352411       5.60130318340191       5.52585420130466
Pt       6.92931397544042       0.80051838271226       5.52787782773756
Pt       8.31542848948227       3.20091078305709       5.52686601452111
Pt       4.15782658991733       5.60173095492040       5.52503311777041
Pt       1.38559756183364       0.80094616423074       5.52705673420332
Pt       2.77171207587548       3.20133855457557       5.52604493098686
Pt       6.92968479672072       5.60151706416115       5.52544366453753
Pt       4.15745576863703       0.80073227347150       5.52746728097044
Pt       5.54357028267887       3.20112467381633       5.52645546775399
Pt       6.92989631731734       4.00003666614659       3.26303536224493
Pt       8.31601083135918       6.40042906649142       3.26202355902848
Pt       5.54378179327549       1.59964426580177       3.26404717546138
Pt       9.70175451412073       3.99982278538735       3.26344590901206
Pt      11.08786902816257       6.40021517573218       3.26243409579560
Pt       8.31564000007888       1.59943038504253       3.26445772222851
Pt       4.15803810051394       4.00025055690583       3.26262482547781
Pt       5.54415261455579       6.40064294725066       3.26161301226135
Pt       2.77192358647210       1.59985815656101       3.26363662869426
Pt       1.38639130431662       2.39871565963579       1.00094200641267
Pt       5.54436412515249       4.79916255923590       0.99921471996875
Pt       6.93024573922015       7.19969002953171       1.00043297675697
Pt       4.15824961111064       2.39877015889108       1.00022652318521
Pt       8.31622234195589       4.79894866847666       0.99962525673588
Pt       9.70210394602354       7.19947614877247       1.00084352352410
Pt       6.93010782791404       2.39855626813184       1.00063706995233
Pt       2.77250592834910       4.79937643979514       0.99880417320163
Pt       4.15838753241676       7.19990392009095       1.00002242998985
VEC1       8.31557574680000       0.00000000000000       0.00000000000000
VEC2       4.15778787340000       7.20149984380000       0.00000000000000
VEC3       0.00000000000000       0.00000000000000      20.00000000000000
37
Id 44 Energy(hartree)     -7.25283184
O        4.15740037096674       5.01074594295925       9.08272546410013
Pt       8.31521687147372       4.80239106214524       7.78926431135214
Pt       5.54298801132526       0.00160655433428       7.79128788874782
Pt       6.92910244139950       2.40199880823976       7.79027610004998
Pt      11.08707501946377       4.80244556090432       7.78854882263534
Pt       8.31484615931530       0.00166105269335       7.79057239003102
Pt       9.70096047940514       2.40178492696917       7.79068663132416
Pt       5.54335883346807       4.80260494341583       7.78885379007795
Pt       2.77112997331960       0.00182044520486       7.79087735747363
Pt       4.15724440339384       2.40221269911034       7.78986557877579
Pt       9.70154279920938       5.60130304564577       5.52585420883435
Pt       6.92931393906091       0.80051853783481       5.52787778623002
Pt       8.31542836913514       3.20091079174029       5.52686599753218
Pt       4.15782672319807       5.60173081818695       5.52503315628597
Pt       1.38559786304960       0.80094632037598       5.52705672368165
Pt       2.77171229312383       3.20133856428147       5.52604494498381
Pt       6.92968476120372       5.60151692691636       5.52544368756016
Pt       4.15745590105525       0.80073242910540       5.52746725495584
Pt       5.54357033112949       3.20112468301088       5.52645546625800
Pt       6.92989626886500       4.00003665691174       3.26303536374020
Pt       8.31601069893923       6.40042891081723       3.26202358504237
Pt       5.54378182879076       1.59964440300626       3.26404715243804
Pt       9.70175429687065       3.99982277564116       3.26344589501439
Pt      11.08786872694488       6.40021501954664       3.26243410631655
Pt       8.31563986679641       1.59943052173568       3.26445768371223
Pt       4.15803822085934       4.00025054818233       3.26262484246602
Pt       5.54415265093358       6.40064279208781       3.26161305376818
Pt       2.77192379078511       1.59985829427685       3.26363662116386
Pt       1.38639158053072       2.39871577941831       1.00094201736286
Pt       5.54436414859499       4.79916253208287       0.99921473994822
Pt       6.93024567870753       7.19968985590940       1.00043302125818
Pt       4.15824971852076       2.39877027817738       1.00022651864606
Pt       8.31622219660064       4.79894864081228       0.99962526122241
Pt       9.70210371671318       7.19947597463881       1.00084355253236
Pt       6.93010776652641       2.39855638690680       1.00063704992025
Pt       2.77250612058934       4.79937641295346       0.99880420867404
Pt       4.15838764070188       7.19990374677999       1.00002248998400
VEC1       8.31557574680000       0.00000000000000       0.00000000000000
VEC2       4.15778787340000       7.20149984380000       0.00000000000000
VEC3       0.00000000000000       0.00000000000000      20.00000000000000
37
Id 45 Energy(hartree)     -7.25282176
O        4.66872126033616       5.89656801394512       9.08343551775567
Pt       8.31521687147372       4.80239106214524       7.78926431135214
Pt       5.54298801132526       0.00160655433428       7.79128788874782
Pt       6.92910244139950       2.40199880823976       7.79027610004998
Pt      11.08707501946377       4.80244556090432       7.78854882263534
Pt       8.31484615931530       0.00166105269335       7.79057239003102
Pt       9.70096047940514       2.40178492696917       7.79068663132416
Pt       5.54335883346807       4.80260494341583       7.78885379007795
Pt       2.77112997331960       0.00182044520486       7.79087735747363
Pt       4.15724440339384       2.40221269911034       7.78986557877579
Pt       9.70154279920938       5.60130304564577       5.52585420883435
Pt       6.92931393906091       0.80051853783481       5.52787778623002
Pt       8.31542836913514       3.20091079174029       5.52686599753218
Pt       4.15782672319807       5.60173081818695       5.52503315628597
Pt       1.38559786304960       0.80094632037598       5.52705672368165
Pt       2.77171229312383       3.20133856428147       5.52604494498381
Pt       6.92968476120372       5.60151692691636       5.52544368756016
Pt       4.15745590105525       0.80073242910540       5.52746725495584
Pt       5.54357033112949       3.20112468301088       5.52645546625800
Pt       6.92989626886500       4.00003665691174       3.26303536374020
Pt       8.31601069893923       6.40042891081723       3.26202358504237
Pt       5.54378182879076       1.59964440300626       3.26404715243804
Pt       9.70175429687065       3.99982277564116       3.26344589501439
Pt      11.08786872694488       6.40021501954664       3.26243410631655
Pt       8.31563986679641       1.59943052173568       3.26445768371223
Pt       4.15803822085934       4.00025054818233       3.26262484246602
Pt       5.54415265093358       6.40064279208781       3.26161305376818
Pt       2.77192379078511       1.59985829427685       3.26363662116386
Pt       1.38639158053072       2.39871577941831       1.00094201736286
Pt       5.54436414859499       4.79916253208287       0.99921473994822
Pt       6.93024567870753       7.19968985590940       1.00043302125818
Pt       4.15824971852076       2.39877027817738       1.00022651864606
Pt       8.31622219660064       4.79894864081228       0.99962526122241
Pt       9.70210371671318       7.19947597463881       1.00084355253236
Pt       6.93010776652641       2.39855638690680       1.00063704992025
Pt       2.77250612058934       4.79937641295346       0.99880420867404
Pt       4.15838764070188       7.19990374677999       1.00002248998400
VEC1       8.31557574680000       0.00000000000000       0.00000000000000
VEC2       4.15778787340000       7.20149984380000       0.00000000000000
VEC3       0.00000000000000       0.00000000000000      20.00000000000000

AMS application finished. Exiting.
 NORMAL TERMINATION
     Total cpu time:     123.22
  Total system time:       0.39
 Total elapsed time:     123.68
