

 Parallel Execution: Process Information
 ==============================================================================
 Rank   Node Name                              NodeID   MyNodeRank  NodeMaster
    0   aguirre-XPS-13-7390                       0          0          0
    1   aguirre-XPS-13-7390                       0          1         -1
    2   aguirre-XPS-13-7390                       0          2         -1
    3   aguirre-XPS-13-7390                       0          3         -1
 ==============================================================================


May use up to 7486MB of RAM as shared memory on node 0
Floating license: not using directory 
Floating license: not using directory 
Floating license: not using directory 
Floating license: not using directory 

 *******************************************************************************
 *                                                                             *
 *  --------------------------------                                           *
 *   Amsterdam Modeling Suite (AMS)              2022.203                      *
 *  --------------------------------                                           *
 *                                               r103988 2022-05-11            *
 *                                                                             *
 *                                                                             *
 *                              =================                              *
 *                              |               |                              *
 *                              |     A M S     |                              *
 *                              |               |                              *
 *                              =================                              *
 *                                                                             *
 *                                                                             *
 *   Online information and documentation:  https://www.scm.com/support/       *
 *   E-mail:  support@scm.com   info@scm.com                                   *
 *                                                                             *
 *   Scientific publications using AMS results must be properly referenced     *
 *   See the User Manuals (or the web site) for recommended citations          *
 *   The terms and conditions of the End User License Agreement apply to       *
 *   the use of AMS, https://www.scm.com/license-terms/                        *
 *                                                                             *
 ***********************  x86_64_linux_gnu7 / intelmpi  ************************
 
 Licensed to: Dr. Nestor Aguirre Castiblanco  / SCM / Amsterdam / NETHERLANDS 2022-01-24 09:33:25
 SCM User ID: u22021
  
 AMS 2022.203  RunTime: May13-2022 12:17:57  ShM Nodes: 1  Procs: 4

 AMS jobname: O_ads-Pt111
 AMS jobid  : 329079833

 Start   directory: /home/aguirre/Develop/pyzacros/test_RKFLoader/O_ads-Pt111/
 Results directory: /home/aguirre/Develop/pyzacros/test_RKFLoader/O_ads-Pt111/
 Scratch directory: /scratch/aguirre/amstmp_O_ads-Pt111_kid0.329079833/


 Communication costs MPI_COMM_WORLD:      0.847 usec per message,   0.0087 usec per 8-byte item
 Communication costs for intra-node:      0.773 usec per message,   0.0089 usec per 8-byte item

 RNG seed: 1005245043 757069522 421463909 666938038 1166730533 -1880117880 838295520 -1523029914
 MPI rank    0: Number of processors available to this process:      2
 MPI rank    0: Default max number of OpenMP threads:                2
 MPI rank    0: The OMP_NUM_THREADS environment variable is not set!
 MPI rank    0: Restrict max number of OpenMP threads to:            1
Force field identifier: Reactive MD-force field: C/H/O/N/S/F/Pt/
 Triple bond stabilization enabled for C-O only
 Non-bonding interaction type[nonbontype]:
 No inner wall, shielding
 Warning:changed vval3 to valf for X 

Reference geometry:
   Note: All states are going to be aligned with this reference

--------
Geometry
--------
Formula: Pt36
Atoms
  Index Symbol   x (angstrom)   y (angstrom)   z (angstrom)
      1     Pt     9.24070201     6.95527267     1.31036083       region=surface
      2     Pt     9.24070201     2.15427277     1.31036083       region=surface
      3     Pt    10.62663130     4.55477272     1.31036083       region=surface
      4     Pt    12.01256059     6.95527267     1.31036083       region=surface
      5     Pt     3.69698485     2.15427277     8.10000000       region=surface
      6     Pt     5.08291414     4.55477272     8.10000000       region=surface
      7     Pt     6.46884343     6.95527267     8.10000000       region=surface
      8     Pt     6.46884343     2.15427277     8.10000000       region=surface
      9     Pt     7.85477272     4.55477272     8.10000000       region=surface
     10     Pt     9.24070201     6.95527267     8.10000000       region=surface
     11     Pt     9.24070201     2.15427277     8.10000000       region=surface
     12     Pt    10.62663130     4.55477272     8.10000000       region=surface
     13     Pt    12.01256059     6.95527267     8.10000000       region=surface
     14     Pt     5.08291414     2.95443942     5.83678694       region=surface
     15     Pt     6.46884343     5.35493937     5.83678694       region=surface
     16     Pt     7.85477272     7.75543932     5.83678694       region=surface
     17     Pt     7.85477272     2.95443942     5.83678694       region=surface
     18     Pt     9.24070201     5.35493937     5.83678694       region=surface
     19     Pt    10.62663130     7.75543932     5.83678694       region=surface
     20     Pt    10.62663130     2.95443942     5.83678694       region=surface
     21     Pt    12.01256059     5.35493937     5.83678694       region=surface
     22     Pt    13.39848987     7.75543932     5.83678694       region=surface
     23     Pt     2.31105556     1.35410612     3.57357389       region=surface
     24     Pt     3.69698485     3.75460607     3.57357389       region=surface
     25     Pt     5.08291414     6.15510602     3.57357389       region=surface
     26     Pt     5.08291414     1.35410612     3.57357389       region=surface
     27     Pt     6.46884343     3.75460607     3.57357389       region=surface
     28     Pt     7.85477272     6.15510602     3.57357389       region=surface
     29     Pt     7.85477272     1.35410612     3.57357389       region=surface
     30     Pt     9.24070201     3.75460607     3.57357389       region=surface
     31     Pt    10.62663130     6.15510602     3.57357389       region=surface
     32     Pt     3.69698485     2.15427277     1.31036083       region=surface
     33     Pt     5.08291414     4.55477272     1.31036083       region=surface
     34     Pt     6.46884343     6.95527267     1.31036083       region=surface
     35     Pt     6.46884343     2.15427277     1.31036083       region=surface
     36     Pt     7.85477272     4.55477272     1.31036083       region=surface

Lattice vectors (angstrom)
      1     8.31557575     0.00000000     0.00000000
      2     4.15778787     7.20149984     0.00000000

Unit cell area (angstrom^2)        59.88462

Total System Charge             0.00000

       ***************************
       *  GEOMETRY OPTIMIZATION  *
       ***************************

FIRE optimizer config
       nMin:  5 steps
    dtStart:  0.2500 fs
      dtMax:  0.5000 fs
       fInc:  1.1000
       fDec:  0.5000
 alphaStart:  0.1000
     fAlpha:  0.9900
 Opt. latt.:  F
Convergence criteria:
       Energy:  0.000010 Ha per atom
    Gradients:  0.000184 Ha/Angstrom
         Step:  0.010000 Angstrom
Stress energy:  0.000500 Ha per atom

Relaxing 3 nuclear degrees of freedom with FIRE.
 Rigid motions settings for: FIRE
 Atomic rotations (x,y,z):     F F F
 Atomic translations (x,y,z):  F F F
 Tolerance:                    9.9999999999999995E-007
Rank   volume(%)   N atoms
   0       14.80         9
   1       13.80         9
   2       36.95        10
   3       34.45         9
Unit cell division (XYZ):    2    1    2
My region size in cell units  0.51750000  1.00000000  0.28600000
Ghost region in cell units    1.73574953  1.73574954  1.57714113
Total space in cell units     3.98899907  4.47149907  3.44028226
 Local atoms:           9 , including ghost atoms:          37
 Local Verlet list:        1231 local (incl my-other) pairs,        54 self-pairs       952 foreign my-other pairs,       974 foreign other-other pairs

Geometry at FIRE step 1:

--------
Geometry
--------
Formula: OPt36
Atoms
  Index Symbol   x (angstrom)   y (angstrom)   z (angstrom)
      1      O     6.46800601     3.75431052     9.23609817       region=adsorbate
      2     Pt     9.24070201     6.95527267     1.31036083       region=surface
      3     Pt     9.24070201     2.15427277     1.31036083       region=surface
      4     Pt    10.62663130     4.55477272     1.31036083       region=surface
      5     Pt    12.01256059     6.95527267     1.31036083       region=surface
      6     Pt     3.69698485     2.15427277     8.10000000       region=surface
      7     Pt     5.08291414     4.55477272     8.10000000       region=surface
      8     Pt     6.46884343     6.95527267     8.10000000       region=surface
      9     Pt     6.46884343     2.15427277     8.10000000       region=surface
     10     Pt     7.85477272     4.55477272     8.10000000       region=surface
     11     Pt     9.24070201     6.95527267     8.10000000       region=surface
     12     Pt     9.24070201     2.15427277     8.10000000       region=surface
     13     Pt    10.62663130     4.55477272     8.10000000       region=surface
     14     Pt    12.01256059     6.95527267     8.10000000       region=surface
     15     Pt     5.08291414     2.95443942     5.83678694       region=surface
     16     Pt     6.46884343     5.35493937     5.83678694       region=surface
     17     Pt     7.85477272     7.75543932     5.83678694       region=surface
     18     Pt     7.85477272     2.95443942     5.83678694       region=surface
     19     Pt     9.24070201     5.35493937     5.83678694       region=surface
     20     Pt    10.62663130     7.75543932     5.83678694       region=surface
     21     Pt    10.62663130     2.95443942     5.83678694       region=surface
     22     Pt    12.01256059     5.35493937     5.83678694       region=surface
     23     Pt    13.39848987     7.75543932     5.83678694       region=surface
     24     Pt     2.31105556     1.35410612     3.57357389       region=surface
     25     Pt     3.69698485     3.75460607     3.57357389       region=surface
     26     Pt     5.08291414     6.15510602     3.57357389       region=surface
     27     Pt     5.08291414     1.35410612     3.57357389       region=surface
     28     Pt     6.46884343     3.75460607     3.57357389       region=surface
     29     Pt     7.85477272     6.15510602     3.57357389       region=surface
     30     Pt     7.85477272     1.35410612     3.57357389       region=surface
     31     Pt     9.24070201     3.75460607     3.57357389       region=surface
     32     Pt    10.62663130     6.15510602     3.57357389       region=surface
     33     Pt     3.69698485     2.15427277     1.31036083       region=surface
     34     Pt     5.08291414     4.55477272     1.31036083       region=surface
     35     Pt     6.46884343     6.95527267     1.31036083       region=surface
     36     Pt     6.46884343     2.15427277     1.31036083       region=surface
     37     Pt     7.85477272     4.55477272     1.31036083       region=surface

Lattice vectors (angstrom)
      1     8.31557575     0.00000000     0.00000000
      2     4.15778787     7.20149984     0.00000000

Unit cell area (angstrom^2)        59.88462

Total System Charge             0.00000


Geometry at FIRE step 2:

--------
Geometry
--------
Formula: OPt36
Atoms
  Index Symbol   x (angstrom)   y (angstrom)   z (angstrom)
      1      O     6.46801156     3.75431248     9.23611015       region=adsorbate
      2     Pt     9.24070201     6.95527267     1.31036083       region=surface
      3     Pt     9.24070201     2.15427277     1.31036083       region=surface
      4     Pt    10.62663130     4.55477272     1.31036083       region=surface
      5     Pt    12.01256059     6.95527267     1.31036083       region=surface
      6     Pt     3.69698485     2.15427277     8.10000000       region=surface
      7     Pt     5.08291414     4.55477272     8.10000000       region=surface
      8     Pt     6.46884343     6.95527267     8.10000000       region=surface
      9     Pt     6.46884343     2.15427277     8.10000000       region=surface
     10     Pt     7.85477272     4.55477272     8.10000000       region=surface
     11     Pt     9.24070201     6.95527267     8.10000000       region=surface
     12     Pt     9.24070201     2.15427277     8.10000000       region=surface
     13     Pt    10.62663130     4.55477272     8.10000000       region=surface
     14     Pt    12.01256059     6.95527267     8.10000000       region=surface
     15     Pt     5.08291414     2.95443942     5.83678694       region=surface
     16     Pt     6.46884343     5.35493937     5.83678694       region=surface
     17     Pt     7.85477272     7.75543932     5.83678694       region=surface
     18     Pt     7.85477272     2.95443942     5.83678694       region=surface
     19     Pt     9.24070201     5.35493937     5.83678694       region=surface
     20     Pt    10.62663130     7.75543932     5.83678694       region=surface
     21     Pt    10.62663130     2.95443942     5.83678694       region=surface
     22     Pt    12.01256059     5.35493937     5.83678694       region=surface
     23     Pt    13.39848987     7.75543932     5.83678694       region=surface
     24     Pt     2.31105556     1.35410612     3.57357389       region=surface
     25     Pt     3.69698485     3.75460607     3.57357389       region=surface
     26     Pt     5.08291414     6.15510602     3.57357389       region=surface
     27     Pt     5.08291414     1.35410612     3.57357389       region=surface
     28     Pt     6.46884343     3.75460607     3.57357389       region=surface
     29     Pt     7.85477272     6.15510602     3.57357389       region=surface
     30     Pt     7.85477272     1.35410612     3.57357389       region=surface
     31     Pt     9.24070201     3.75460607     3.57357389       region=surface
     32     Pt    10.62663130     6.15510602     3.57357389       region=surface
     33     Pt     3.69698485     2.15427277     1.31036083       region=surface
     34     Pt     5.08291414     4.55477272     1.31036083       region=surface
     35     Pt     6.46884343     6.95527267     1.31036083       region=surface
     36     Pt     6.46884343     2.15427277     1.31036083       region=surface
     37     Pt     7.85477272     4.55477272     1.31036083       region=surface

Lattice vectors (angstrom)
      1     8.31557575     0.00000000     0.00000000
      2     4.15778787     7.20149984     0.00000000

Unit cell area (angstrom^2)        59.88462

Total System Charge             0.00000


Geometry at FIRE step 3:

--------
Geometry
--------
Formula: OPt36
Atoms
  Index Symbol   x (angstrom)   y (angstrom)   z (angstrom)
      1      O     6.46802079     3.75431574     9.23612990       region=adsorbate
      2     Pt     9.24070201     6.95527267     1.31036083       region=surface
      3     Pt     9.24070201     2.15427277     1.31036083       region=surface
      4     Pt    10.62663130     4.55477272     1.31036083       region=surface
      5     Pt    12.01256059     6.95527267     1.31036083       region=surface
      6     Pt     3.69698485     2.15427277     8.10000000       region=surface
      7     Pt     5.08291414     4.55477272     8.10000000       region=surface
      8     Pt     6.46884343     6.95527267     8.10000000       region=surface
      9     Pt     6.46884343     2.15427277     8.10000000       region=surface
     10     Pt     7.85477272     4.55477272     8.10000000       region=surface
     11     Pt     9.24070201     6.95527267     8.10000000       region=surface
     12     Pt     9.24070201     2.15427277     8.10000000       region=surface
     13     Pt    10.62663130     4.55477272     8.10000000       region=surface
     14     Pt    12.01256059     6.95527267     8.10000000       region=surface
     15     Pt     5.08291414     2.95443942     5.83678694       region=surface
     16     Pt     6.46884343     5.35493937     5.83678694       region=surface
     17     Pt     7.85477272     7.75543932     5.83678694       region=surface
     18     Pt     7.85477272     2.95443942     5.83678694       region=surface
     19     Pt     9.24070201     5.35493937     5.83678694       region=surface
     20     Pt    10.62663130     7.75543932     5.83678694       region=surface
     21     Pt    10.62663130     2.95443942     5.83678694       region=surface
     22     Pt    12.01256059     5.35493937     5.83678694       region=surface
     23     Pt    13.39848987     7.75543932     5.83678694       region=surface
     24     Pt     2.31105556     1.35410612     3.57357389       region=surface
     25     Pt     3.69698485     3.75460607     3.57357389       region=surface
     26     Pt     5.08291414     6.15510602     3.57357389       region=surface
     27     Pt     5.08291414     1.35410612     3.57357389       region=surface
     28     Pt     6.46884343     3.75460607     3.57357389       region=surface
     29     Pt     7.85477272     6.15510602     3.57357389       region=surface
     30     Pt     7.85477272     1.35410612     3.57357389       region=surface
     31     Pt     9.24070201     3.75460607     3.57357389       region=surface
     32     Pt    10.62663130     6.15510602     3.57357389       region=surface
     33     Pt     3.69698485     2.15427277     1.31036083       region=surface
     34     Pt     5.08291414     4.55477272     1.31036083       region=surface
     35     Pt     6.46884343     6.95527267     1.31036083       region=surface
     36     Pt     6.46884343     2.15427277     1.31036083       region=surface
     37     Pt     7.85477272     4.55477272     1.31036083       region=surface

Lattice vectors (angstrom)
      1     8.31557575     0.00000000     0.00000000
      2     4.15778787     7.20149984     0.00000000

Unit cell area (angstrom^2)        59.88462

Total System Charge             0.00000


Geometry at FIRE step 4:

--------
Geometry
--------
Formula: OPt36
Atoms
  Index Symbol   x (angstrom)   y (angstrom)   z (angstrom)
      1      O     6.46803368     3.75432029     9.23615707       region=adsorbate
      2     Pt     9.24070201     6.95527267     1.31036083       region=surface
      3     Pt     9.24070201     2.15427277     1.31036083       region=surface
      4     Pt    10.62663130     4.55477272     1.31036083       region=surface
      5     Pt    12.01256059     6.95527267     1.31036083       region=surface
      6     Pt     3.69698485     2.15427277     8.10000000       region=surface
      7     Pt     5.08291414     4.55477272     8.10000000       region=surface
      8     Pt     6.46884343     6.95527267     8.10000000       region=surface
      9     Pt     6.46884343     2.15427277     8.10000000       region=surface
     10     Pt     7.85477272     4.55477272     8.10000000       region=surface
     11     Pt     9.24070201     6.95527267     8.10000000       region=surface
     12     Pt     9.24070201     2.15427277     8.10000000       region=surface
     13     Pt    10.62663130     4.55477272     8.10000000       region=surface
     14     Pt    12.01256059     6.95527267     8.10000000       region=surface
     15     Pt     5.08291414     2.95443942     5.83678694       region=surface
     16     Pt     6.46884343     5.35493937     5.83678694       region=surface
     17     Pt     7.85477272     7.75543932     5.83678694       region=surface
     18     Pt     7.85477272     2.95443942     5.83678694       region=surface
     19     Pt     9.24070201     5.35493937     5.83678694       region=surface
     20     Pt    10.62663130     7.75543932     5.83678694       region=surface
     21     Pt    10.62663130     2.95443942     5.83678694       region=surface
     22     Pt    12.01256059     5.35493937     5.83678694       region=surface
     23     Pt    13.39848987     7.75543932     5.83678694       region=surface
     24     Pt     2.31105556     1.35410612     3.57357389       region=surface
     25     Pt     3.69698485     3.75460607     3.57357389       region=surface
     26     Pt     5.08291414     6.15510602     3.57357389       region=surface
     27     Pt     5.08291414     1.35410612     3.57357389       region=surface
     28     Pt     6.46884343     3.75460607     3.57357389       region=surface
     29     Pt     7.85477272     6.15510602     3.57357389       region=surface
     30     Pt     7.85477272     1.35410612     3.57357389       region=surface
     31     Pt     9.24070201     3.75460607     3.57357389       region=surface
     32     Pt    10.62663130     6.15510602     3.57357389       region=surface
     33     Pt     3.69698485     2.15427277     1.31036083       region=surface
     34     Pt     5.08291414     4.55477272     1.31036083       region=surface
     35     Pt     6.46884343     6.95527267     1.31036083       region=surface
     36     Pt     6.46884343     2.15427277     1.31036083       region=surface
     37     Pt     7.85477272     4.55477272     1.31036083       region=surface

Lattice vectors (angstrom)
      1     8.31557575     0.00000000     0.00000000
      2     4.15778787     7.20149984     0.00000000

Unit cell area (angstrom^2)        59.88462

Total System Charge             0.00000


Geometry at FIRE step 5:

--------
Geometry
--------
Formula: OPt36
Atoms
  Index Symbol   x (angstrom)   y (angstrom)   z (angstrom)
      1      O     6.46805023     3.75432613     9.23619119       region=adsorbate
      2     Pt     9.24070201     6.95527267     1.31036083       region=surface
      3     Pt     9.24070201     2.15427277     1.31036083       region=surface
      4     Pt    10.62663130     4.55477272     1.31036083       region=surface
      5     Pt    12.01256059     6.95527267     1.31036083       region=surface
      6     Pt     3.69698485     2.15427277     8.10000000       region=surface
      7     Pt     5.08291414     4.55477272     8.10000000       region=surface
      8     Pt     6.46884343     6.95527267     8.10000000       region=surface
      9     Pt     6.46884343     2.15427277     8.10000000       region=surface
     10     Pt     7.85477272     4.55477272     8.10000000       region=surface
     11     Pt     9.24070201     6.95527267     8.10000000       region=surface
     12     Pt     9.24070201     2.15427277     8.10000000       region=surface
     13     Pt    10.62663130     4.55477272     8.10000000       region=surface
     14     Pt    12.01256059     6.95527267     8.10000000       region=surface
     15     Pt     5.08291414     2.95443942     5.83678694       region=surface
     16     Pt     6.46884343     5.35493937     5.83678694       region=surface
     17     Pt     7.85477272     7.75543932     5.83678694       region=surface
     18     Pt     7.85477272     2.95443942     5.83678694       region=surface
     19     Pt     9.24070201     5.35493937     5.83678694       region=surface
     20     Pt    10.62663130     7.75543932     5.83678694       region=surface
     21     Pt    10.62663130     2.95443942     5.83678694       region=surface
     22     Pt    12.01256059     5.35493937     5.83678694       region=surface
     23     Pt    13.39848987     7.75543932     5.83678694       region=surface
     24     Pt     2.31105556     1.35410612     3.57357389       region=surface
     25     Pt     3.69698485     3.75460607     3.57357389       region=surface
     26     Pt     5.08291414     6.15510602     3.57357389       region=surface
     27     Pt     5.08291414     1.35410612     3.57357389       region=surface
     28     Pt     6.46884343     3.75460607     3.57357389       region=surface
     29     Pt     7.85477272     6.15510602     3.57357389       region=surface
     30     Pt     7.85477272     1.35410612     3.57357389       region=surface
     31     Pt     9.24070201     3.75460607     3.57357389       region=surface
     32     Pt    10.62663130     6.15510602     3.57357389       region=surface
     33     Pt     3.69698485     2.15427277     1.31036083       region=surface
     34     Pt     5.08291414     4.55477272     1.31036083       region=surface
     35     Pt     6.46884343     6.95527267     1.31036083       region=surface
     36     Pt     6.46884343     2.15427277     1.31036083       region=surface
     37     Pt     7.85477272     4.55477272     1.31036083       region=surface

Lattice vectors (angstrom)
      1     8.31557575     0.00000000     0.00000000
      2     4.15778787     7.20149984     0.00000000

Unit cell area (angstrom^2)        59.88462

Total System Charge             0.00000


Geometry at FIRE step 6:

--------
Geometry
--------
Formula: OPt36
Atoms
  Index Symbol   x (angstrom)   y (angstrom)   z (angstrom)
      1      O     6.46807042     3.75433326     9.23623164       region=adsorbate
      2     Pt     9.24070201     6.95527267     1.31036083       region=surface
      3     Pt     9.24070201     2.15427277     1.31036083       region=surface
      4     Pt    10.62663130     4.55477272     1.31036083       region=surface
      5     Pt    12.01256059     6.95527267     1.31036083       region=surface
      6     Pt     3.69698485     2.15427277     8.10000000       region=surface
      7     Pt     5.08291414     4.55477272     8.10000000       region=surface
      8     Pt     6.46884343     6.95527267     8.10000000       region=surface
      9     Pt     6.46884343     2.15427277     8.10000000       region=surface
     10     Pt     7.85477272     4.55477272     8.10000000       region=surface
     11     Pt     9.24070201     6.95527267     8.10000000       region=surface
     12     Pt     9.24070201     2.15427277     8.10000000       region=surface
     13     Pt    10.62663130     4.55477272     8.10000000       region=surface
     14     Pt    12.01256059     6.95527267     8.10000000       region=surface
     15     Pt     5.08291414     2.95443942     5.83678694       region=surface
     16     Pt     6.46884343     5.35493937     5.83678694       region=surface
     17     Pt     7.85477272     7.75543932     5.83678694       region=surface
     18     Pt     7.85477272     2.95443942     5.83678694       region=surface
     19     Pt     9.24070201     5.35493937     5.83678694       region=surface
     20     Pt    10.62663130     7.75543932     5.83678694       region=surface
     21     Pt    10.62663130     2.95443942     5.83678694       region=surface
     22     Pt    12.01256059     5.35493937     5.83678694       region=surface
     23     Pt    13.39848987     7.75543932     5.83678694       region=surface
     24     Pt     2.31105556     1.35410612     3.57357389       region=surface
     25     Pt     3.69698485     3.75460607     3.57357389       region=surface
     26     Pt     5.08291414     6.15510602     3.57357389       region=surface
     27     Pt     5.08291414     1.35410612     3.57357389       region=surface
     28     Pt     6.46884343     3.75460607     3.57357389       region=surface
     29     Pt     7.85477272     6.15510602     3.57357389       region=surface
     30     Pt     7.85477272     1.35410612     3.57357389       region=surface
     31     Pt     9.24070201     3.75460607     3.57357389       region=surface
     32     Pt    10.62663130     6.15510602     3.57357389       region=surface
     33     Pt     3.69698485     2.15427277     1.31036083       region=surface
     34     Pt     5.08291414     4.55477272     1.31036083       region=surface
     35     Pt     6.46884343     6.95527267     1.31036083       region=surface
     36     Pt     6.46884343     2.15427277     1.31036083       region=surface
     37     Pt     7.85477272     4.55477272     1.31036083       region=surface

Lattice vectors (angstrom)
      1     8.31557575     0.00000000     0.00000000
      2     4.15778787     7.20149984     0.00000000

Unit cell area (angstrom^2)        59.88462

Total System Charge             0.00000


Geometry at FIRE step 7:

--------
Geometry
--------
Formula: OPt36
Atoms
  Index Symbol   x (angstrom)   y (angstrom)   z (angstrom)
      1      O     6.46809689     3.75434260     9.23628260       region=adsorbate
      2     Pt     9.24070201     6.95527267     1.31036083       region=surface
      3     Pt     9.24070201     2.15427277     1.31036083       region=surface
      4     Pt    10.62663130     4.55477272     1.31036083       region=surface
      5     Pt    12.01256059     6.95527267     1.31036083       region=surface
      6     Pt     3.69698485     2.15427277     8.10000000       region=surface
      7     Pt     5.08291414     4.55477272     8.10000000       region=surface
      8     Pt     6.46884343     6.95527267     8.10000000       region=surface
      9     Pt     6.46884343     2.15427277     8.10000000       region=surface
     10     Pt     7.85477272     4.55477272     8.10000000       region=surface
     11     Pt     9.24070201     6.95527267     8.10000000       region=surface
     12     Pt     9.24070201     2.15427277     8.10000000       region=surface
     13     Pt    10.62663130     4.55477272     8.10000000       region=surface
     14     Pt    12.01256059     6.95527267     8.10000000       region=surface
     15     Pt     5.08291414     2.95443942     5.83678694       region=surface
     16     Pt     6.46884343     5.35493937     5.83678694       region=surface
     17     Pt     7.85477272     7.75543932     5.83678694       region=surface
     18     Pt     7.85477272     2.95443942     5.83678694       region=surface
     19     Pt     9.24070201     5.35493937     5.83678694       region=surface
     20     Pt    10.62663130     7.75543932     5.83678694       region=surface
     21     Pt    10.62663130     2.95443942     5.83678694       region=surface
     22     Pt    12.01256059     5.35493937     5.83678694       region=surface
     23     Pt    13.39848987     7.75543932     5.83678694       region=surface
     24     Pt     2.31105556     1.35410612     3.57357389       region=surface
     25     Pt     3.69698485     3.75460607     3.57357389       region=surface
     26     Pt     5.08291414     6.15510602     3.57357389       region=surface
     27     Pt     5.08291414     1.35410612     3.57357389       region=surface
     28     Pt     6.46884343     3.75460607     3.57357389       region=surface
     29     Pt     7.85477272     6.15510602     3.57357389       region=surface
     30     Pt     7.85477272     1.35410612     3.57357389       region=surface
     31     Pt     9.24070201     3.75460607     3.57357389       region=surface
     32     Pt    10.62663130     6.15510602     3.57357389       region=surface
     33     Pt     3.69698485     2.15427277     1.31036083       region=surface
     34     Pt     5.08291414     4.55477272     1.31036083       region=surface
     35     Pt     6.46884343     6.95527267     1.31036083       region=surface
     36     Pt     6.46884343     2.15427277     1.31036083       region=surface
     37     Pt     7.85477272     4.55477272     1.31036083       region=surface

Lattice vectors (angstrom)
      1     8.31557575     0.00000000     0.00000000
      2     4.15778787     7.20149984     0.00000000

Unit cell area (angstrom^2)        59.88462

Total System Charge             0.00000


Geometry at FIRE step 8:

--------
Geometry
--------
Formula: OPt36
Atoms
  Index Symbol   x (angstrom)   y (angstrom)   z (angstrom)
      1      O     6.46813118     3.75435470     9.23634513       region=adsorbate
      2     Pt     9.24070201     6.95527267     1.31036083       region=surface
      3     Pt     9.24070201     2.15427277     1.31036083       region=surface
      4     Pt    10.62663130     4.55477272     1.31036083       region=surface
      5     Pt    12.01256059     6.95527267     1.31036083       region=surface
      6     Pt     3.69698485     2.15427277     8.10000000       region=surface
      7     Pt     5.08291414     4.55477272     8.10000000       region=surface
      8     Pt     6.46884343     6.95527267     8.10000000       region=surface
      9     Pt     6.46884343     2.15427277     8.10000000       region=surface
     10     Pt     7.85477272     4.55477272     8.10000000       region=surface
     11     Pt     9.24070201     6.95527267     8.10000000       region=surface
     12     Pt     9.24070201     2.15427277     8.10000000       region=surface
     13     Pt    10.62663130     4.55477272     8.10000000       region=surface
     14     Pt    12.01256059     6.95527267     8.10000000       region=surface
     15     Pt     5.08291414     2.95443942     5.83678694       region=surface
     16     Pt     6.46884343     5.35493937     5.83678694       region=surface
     17     Pt     7.85477272     7.75543932     5.83678694       region=surface
     18     Pt     7.85477272     2.95443942     5.83678694       region=surface
     19     Pt     9.24070201     5.35493937     5.83678694       region=surface
     20     Pt    10.62663130     7.75543932     5.83678694       region=surface
     21     Pt    10.62663130     2.95443942     5.83678694       region=surface
     22     Pt    12.01256059     5.35493937     5.83678694       region=surface
     23     Pt    13.39848987     7.75543932     5.83678694       region=surface
     24     Pt     2.31105556     1.35410612     3.57357389       region=surface
     25     Pt     3.69698485     3.75460607     3.57357389       region=surface
     26     Pt     5.08291414     6.15510602     3.57357389       region=surface
     27     Pt     5.08291414     1.35410612     3.57357389       region=surface
     28     Pt     6.46884343     3.75460607     3.57357389       region=surface
     29     Pt     7.85477272     6.15510602     3.57357389       region=surface
     30     Pt     7.85477272     1.35410612     3.57357389       region=surface
     31     Pt     9.24070201     3.75460607     3.57357389       region=surface
     32     Pt    10.62663130     6.15510602     3.57357389       region=surface
     33     Pt     3.69698485     2.15427277     1.31036083       region=surface
     34     Pt     5.08291414     4.55477272     1.31036083       region=surface
     35     Pt     6.46884343     6.95527267     1.31036083       region=surface
     36     Pt     6.46884343     2.15427277     1.31036083       region=surface
     37     Pt     7.85477272     4.55477272     1.31036083       region=surface

Lattice vectors (angstrom)
      1     8.31557575     0.00000000     0.00000000
      2     4.15778787     7.20149984     0.00000000

Unit cell area (angstrom^2)        59.88462

Total System Charge             0.00000


Geometry at FIRE step 9:

--------
Geometry
--------
Formula: OPt36
Atoms
  Index Symbol   x (angstrom)   y (angstrom)   z (angstrom)
      1      O     6.46817530     3.75437028     9.23641964       region=adsorbate
      2     Pt     9.24070201     6.95527267     1.31036083       region=surface
      3     Pt     9.24070201     2.15427277     1.31036083       region=surface
      4     Pt    10.62663130     4.55477272     1.31036083       region=surface
      5     Pt    12.01256059     6.95527267     1.31036083       region=surface
      6     Pt     3.69698485     2.15427277     8.10000000       region=surface
      7     Pt     5.08291414     4.55477272     8.10000000       region=surface
      8     Pt     6.46884343     6.95527267     8.10000000       region=surface
      9     Pt     6.46884343     2.15427277     8.10000000       region=surface
     10     Pt     7.85477272     4.55477272     8.10000000       region=surface
     11     Pt     9.24070201     6.95527267     8.10000000       region=surface
     12     Pt     9.24070201     2.15427277     8.10000000       region=surface
     13     Pt    10.62663130     4.55477272     8.10000000       region=surface
     14     Pt    12.01256059     6.95527267     8.10000000       region=surface
     15     Pt     5.08291414     2.95443942     5.83678694       region=surface
     16     Pt     6.46884343     5.35493937     5.83678694       region=surface
     17     Pt     7.85477272     7.75543932     5.83678694       region=surface
     18     Pt     7.85477272     2.95443942     5.83678694       region=surface
     19     Pt     9.24070201     5.35493937     5.83678694       region=surface
     20     Pt    10.62663130     7.75543932     5.83678694       region=surface
     21     Pt    10.62663130     2.95443942     5.83678694       region=surface
     22     Pt    12.01256059     5.35493937     5.83678694       region=surface
     23     Pt    13.39848987     7.75543932     5.83678694       region=surface
     24     Pt     2.31105556     1.35410612     3.57357389       region=surface
     25     Pt     3.69698485     3.75460607     3.57357389       region=surface
     26     Pt     5.08291414     6.15510602     3.57357389       region=surface
     27     Pt     5.08291414     1.35410612     3.57357389       region=surface
     28     Pt     6.46884343     3.75460607     3.57357389       region=surface
     29     Pt     7.85477272     6.15510602     3.57357389       region=surface
     30     Pt     7.85477272     1.35410612     3.57357389       region=surface
     31     Pt     9.24070201     3.75460607     3.57357389       region=surface
     32     Pt    10.62663130     6.15510602     3.57357389       region=surface
     33     Pt     3.69698485     2.15427277     1.31036083       region=surface
     34     Pt     5.08291414     4.55477272     1.31036083       region=surface
     35     Pt     6.46884343     6.95527267     1.31036083       region=surface
     36     Pt     6.46884343     2.15427277     1.31036083       region=surface
     37     Pt     7.85477272     4.55477272     1.31036083       region=surface

Lattice vectors (angstrom)
      1     8.31557575     0.00000000     0.00000000
      2     4.15778787     7.20149984     0.00000000

Unit cell area (angstrom^2)        59.88462

Total System Charge             0.00000


Geometry at FIRE step 10:

--------
Geometry
--------
Formula: OPt36
Atoms
  Index Symbol   x (angstrom)   y (angstrom)   z (angstrom)
      1      O     6.46823191     3.75439026     9.23650511       region=adsorbate
      2     Pt     9.24070201     6.95527267     1.31036083       region=surface
      3     Pt     9.24070201     2.15427277     1.31036083       region=surface
      4     Pt    10.62663130     4.55477272     1.31036083       region=surface
      5     Pt    12.01256059     6.95527267     1.31036083       region=surface
      6     Pt     3.69698485     2.15427277     8.10000000       region=surface
      7     Pt     5.08291414     4.55477272     8.10000000       region=surface
      8     Pt     6.46884343     6.95527267     8.10000000       region=surface
      9     Pt     6.46884343     2.15427277     8.10000000       region=surface
     10     Pt     7.85477272     4.55477272     8.10000000       region=surface
     11     Pt     9.24070201     6.95527267     8.10000000       region=surface
     12     Pt     9.24070201     2.15427277     8.10000000       region=surface
     13     Pt    10.62663130     4.55477272     8.10000000       region=surface
     14     Pt    12.01256059     6.95527267     8.10000000       region=surface
     15     Pt     5.08291414     2.95443942     5.83678694       region=surface
     16     Pt     6.46884343     5.35493937     5.83678694       region=surface
     17     Pt     7.85477272     7.75543932     5.83678694       region=surface
     18     Pt     7.85477272     2.95443942     5.83678694       region=surface
     19     Pt     9.24070201     5.35493937     5.83678694       region=surface
     20     Pt    10.62663130     7.75543932     5.83678694       region=surface
     21     Pt    10.62663130     2.95443942     5.83678694       region=surface
     22     Pt    12.01256059     5.35493937     5.83678694       region=surface
     23     Pt    13.39848987     7.75543932     5.83678694       region=surface
     24     Pt     2.31105556     1.35410612     3.57357389       region=surface
     25     Pt     3.69698485     3.75460607     3.57357389       region=surface
     26     Pt     5.08291414     6.15510602     3.57357389       region=surface
     27     Pt     5.08291414     1.35410612     3.57357389       region=surface
     28     Pt     6.46884343     3.75460607     3.57357389       region=surface
     29     Pt     7.85477272     6.15510602     3.57357389       region=surface
     30     Pt     7.85477272     1.35410612     3.57357389       region=surface
     31     Pt     9.24070201     3.75460607     3.57357389       region=surface
     32     Pt    10.62663130     6.15510602     3.57357389       region=surface
     33     Pt     3.69698485     2.15427277     1.31036083       region=surface
     34     Pt     5.08291414     4.55477272     1.31036083       region=surface
     35     Pt     6.46884343     6.95527267     1.31036083       region=surface
     36     Pt     6.46884343     2.15427277     1.31036083       region=surface
     37     Pt     7.85477272     4.55477272     1.31036083       region=surface

Lattice vectors (angstrom)
      1     8.31557575     0.00000000     0.00000000
      2     4.15778787     7.20149984     0.00000000

Unit cell area (angstrom^2)        59.88462

Total System Charge             0.00000


Geometry at FIRE step 11:

--------
Geometry
--------
Formula: OPt36
Atoms
  Index Symbol   x (angstrom)   y (angstrom)   z (angstrom)
      1      O     6.46830439     3.75441584     9.23659747       region=adsorbate
      2     Pt     9.24070201     6.95527267     1.31036083       region=surface
      3     Pt     9.24070201     2.15427277     1.31036083       region=surface
      4     Pt    10.62663130     4.55477272     1.31036083       region=surface
      5     Pt    12.01256059     6.95527267     1.31036083       region=surface
      6     Pt     3.69698485     2.15427277     8.10000000       region=surface
      7     Pt     5.08291414     4.55477272     8.10000000       region=surface
      8     Pt     6.46884343     6.95527267     8.10000000       region=surface
      9     Pt     6.46884343     2.15427277     8.10000000       region=surface
     10     Pt     7.85477272     4.55477272     8.10000000       region=surface
     11     Pt     9.24070201     6.95527267     8.10000000       region=surface
     12     Pt     9.24070201     2.15427277     8.10000000       region=surface
     13     Pt    10.62663130     4.55477272     8.10000000       region=surface
     14     Pt    12.01256059     6.95527267     8.10000000       region=surface
     15     Pt     5.08291414     2.95443942     5.83678694       region=surface
     16     Pt     6.46884343     5.35493937     5.83678694       region=surface
     17     Pt     7.85477272     7.75543932     5.83678694       region=surface
     18     Pt     7.85477272     2.95443942     5.83678694       region=surface
     19     Pt     9.24070201     5.35493937     5.83678694       region=surface
     20     Pt    10.62663130     7.75543932     5.83678694       region=surface
     21     Pt    10.62663130     2.95443942     5.83678694       region=surface
     22     Pt    12.01256059     5.35493937     5.83678694       region=surface
     23     Pt    13.39848987     7.75543932     5.83678694       region=surface
     24     Pt     2.31105556     1.35410612     3.57357389       region=surface
     25     Pt     3.69698485     3.75460607     3.57357389       region=surface
     26     Pt     5.08291414     6.15510602     3.57357389       region=surface
     27     Pt     5.08291414     1.35410612     3.57357389       region=surface
     28     Pt     6.46884343     3.75460607     3.57357389       region=surface
     29     Pt     7.85477272     6.15510602     3.57357389       region=surface
     30     Pt     7.85477272     1.35410612     3.57357389       region=surface
     31     Pt     9.24070201     3.75460607     3.57357389       region=surface
     32     Pt    10.62663130     6.15510602     3.57357389       region=surface
     33     Pt     3.69698485     2.15427277     1.31036083       region=surface
     34     Pt     5.08291414     4.55477272     1.31036083       region=surface
     35     Pt     6.46884343     6.95527267     1.31036083       region=surface
     36     Pt     6.46884343     2.15427277     1.31036083       region=surface
     37     Pt     7.85477272     4.55477272     1.31036083       region=surface

Lattice vectors (angstrom)
      1     8.31557575     0.00000000     0.00000000
      2     4.15778787     7.20149984     0.00000000

Unit cell area (angstrom^2)        59.88462

Total System Charge             0.00000


Geometry at FIRE step 12:

--------
Geometry
--------
Formula: OPt36
Atoms
  Index Symbol   x (angstrom)   y (angstrom)   z (angstrom)
      1      O     6.46839528     3.75444793     9.23668704       region=adsorbate
      2     Pt     9.24070201     6.95527267     1.31036083       region=surface
      3     Pt     9.24070201     2.15427277     1.31036083       region=surface
      4     Pt    10.62663130     4.55477272     1.31036083       region=surface
      5     Pt    12.01256059     6.95527267     1.31036083       region=surface
      6     Pt     3.69698485     2.15427277     8.10000000       region=surface
      7     Pt     5.08291414     4.55477272     8.10000000       region=surface
      8     Pt     6.46884343     6.95527267     8.10000000       region=surface
      9     Pt     6.46884343     2.15427277     8.10000000       region=surface
     10     Pt     7.85477272     4.55477272     8.10000000       region=surface
     11     Pt     9.24070201     6.95527267     8.10000000       region=surface
     12     Pt     9.24070201     2.15427277     8.10000000       region=surface
     13     Pt    10.62663130     4.55477272     8.10000000       region=surface
     14     Pt    12.01256059     6.95527267     8.10000000       region=surface
     15     Pt     5.08291414     2.95443942     5.83678694       region=surface
     16     Pt     6.46884343     5.35493937     5.83678694       region=surface
     17     Pt     7.85477272     7.75543932     5.83678694       region=surface
     18     Pt     7.85477272     2.95443942     5.83678694       region=surface
     19     Pt     9.24070201     5.35493937     5.83678694       region=surface
     20     Pt    10.62663130     7.75543932     5.83678694       region=surface
     21     Pt    10.62663130     2.95443942     5.83678694       region=surface
     22     Pt    12.01256059     5.35493937     5.83678694       region=surface
     23     Pt    13.39848987     7.75543932     5.83678694       region=surface
     24     Pt     2.31105556     1.35410612     3.57357389       region=surface
     25     Pt     3.69698485     3.75460607     3.57357389       region=surface
     26     Pt     5.08291414     6.15510602     3.57357389       region=surface
     27     Pt     5.08291414     1.35410612     3.57357389       region=surface
     28     Pt     6.46884343     3.75460607     3.57357389       region=surface
     29     Pt     7.85477272     6.15510602     3.57357389       region=surface
     30     Pt     7.85477272     1.35410612     3.57357389       region=surface
     31     Pt     9.24070201     3.75460607     3.57357389       region=surface
     32     Pt    10.62663130     6.15510602     3.57357389       region=surface
     33     Pt     3.69698485     2.15427277     1.31036083       region=surface
     34     Pt     5.08291414     4.55477272     1.31036083       region=surface
     35     Pt     6.46884343     6.95527267     1.31036083       region=surface
     36     Pt     6.46884343     2.15427277     1.31036083       region=surface
     37     Pt     7.85477272     4.55477272     1.31036083       region=surface

Lattice vectors (angstrom)
      1     8.31557575     0.00000000     0.00000000
      2     4.15778787     7.20149984     0.00000000

Unit cell area (angstrom^2)        59.88462

Total System Charge             0.00000


Geometry at FIRE step 13:

--------
Geometry
--------
Formula: OPt36
Atoms
  Index Symbol   x (angstrom)   y (angstrom)   z (angstrom)
      1      O     6.46850252     3.75448578     9.23676125       region=adsorbate
      2     Pt     9.24070201     6.95527267     1.31036083       region=surface
      3     Pt     9.24070201     2.15427277     1.31036083       region=surface
      4     Pt    10.62663130     4.55477272     1.31036083       region=surface
      5     Pt    12.01256059     6.95527267     1.31036083       region=surface
      6     Pt     3.69698485     2.15427277     8.10000000       region=surface
      7     Pt     5.08291414     4.55477272     8.10000000       region=surface
      8     Pt     6.46884343     6.95527267     8.10000000       region=surface
      9     Pt     6.46884343     2.15427277     8.10000000       region=surface
     10     Pt     7.85477272     4.55477272     8.10000000       region=surface
     11     Pt     9.24070201     6.95527267     8.10000000       region=surface
     12     Pt     9.24070201     2.15427277     8.10000000       region=surface
     13     Pt    10.62663130     4.55477272     8.10000000       region=surface
     14     Pt    12.01256059     6.95527267     8.10000000       region=surface
     15     Pt     5.08291414     2.95443942     5.83678694       region=surface
     16     Pt     6.46884343     5.35493937     5.83678694       region=surface
     17     Pt     7.85477272     7.75543932     5.83678694       region=surface
     18     Pt     7.85477272     2.95443942     5.83678694       region=surface
     19     Pt     9.24070201     5.35493937     5.83678694       region=surface
     20     Pt    10.62663130     7.75543932     5.83678694       region=surface
     21     Pt    10.62663130     2.95443942     5.83678694       region=surface
     22     Pt    12.01256059     5.35493937     5.83678694       region=surface
     23     Pt    13.39848987     7.75543932     5.83678694       region=surface
     24     Pt     2.31105556     1.35410612     3.57357389       region=surface
     25     Pt     3.69698485     3.75460607     3.57357389       region=surface
     26     Pt     5.08291414     6.15510602     3.57357389       region=surface
     27     Pt     5.08291414     1.35410612     3.57357389       region=surface
     28     Pt     6.46884343     3.75460607     3.57357389       region=surface
     29     Pt     7.85477272     6.15510602     3.57357389       region=surface
     30     Pt     7.85477272     1.35410612     3.57357389       region=surface
     31     Pt     9.24070201     3.75460607     3.57357389       region=surface
     32     Pt    10.62663130     6.15510602     3.57357389       region=surface
     33     Pt     3.69698485     2.15427277     1.31036083       region=surface
     34     Pt     5.08291414     4.55477272     1.31036083       region=surface
     35     Pt     6.46884343     6.95527267     1.31036083       region=surface
     36     Pt     6.46884343     2.15427277     1.31036083       region=surface
     37     Pt     7.85477272     4.55477272     1.31036083       region=surface

Lattice vectors (angstrom)
      1     8.31557575     0.00000000     0.00000000
      2     4.15778787     7.20149984     0.00000000

Unit cell area (angstrom^2)        59.88462

Total System Charge             0.00000


Geometry at FIRE step 14:

--------
Geometry
--------
Formula: OPt36
Atoms
  Index Symbol   x (angstrom)   y (angstrom)   z (angstrom)
      1      O     6.46850324     3.75448603     9.23675982       region=adsorbate
      2     Pt     9.24070201     6.95527267     1.31036083       region=surface
      3     Pt     9.24070201     2.15427277     1.31036083       region=surface
      4     Pt    10.62663130     4.55477272     1.31036083       region=surface
      5     Pt    12.01256059     6.95527267     1.31036083       region=surface
      6     Pt     3.69698485     2.15427277     8.10000000       region=surface
      7     Pt     5.08291414     4.55477272     8.10000000       region=surface
      8     Pt     6.46884343     6.95527267     8.10000000       region=surface
      9     Pt     6.46884343     2.15427277     8.10000000       region=surface
     10     Pt     7.85477272     4.55477272     8.10000000       region=surface
     11     Pt     9.24070201     6.95527267     8.10000000       region=surface
     12     Pt     9.24070201     2.15427277     8.10000000       region=surface
     13     Pt    10.62663130     4.55477272     8.10000000       region=surface
     14     Pt    12.01256059     6.95527267     8.10000000       region=surface
     15     Pt     5.08291414     2.95443942     5.83678694       region=surface
     16     Pt     6.46884343     5.35493937     5.83678694       region=surface
     17     Pt     7.85477272     7.75543932     5.83678694       region=surface
     18     Pt     7.85477272     2.95443942     5.83678694       region=surface
     19     Pt     9.24070201     5.35493937     5.83678694       region=surface
     20     Pt    10.62663130     7.75543932     5.83678694       region=surface
     21     Pt    10.62663130     2.95443942     5.83678694       region=surface
     22     Pt    12.01256059     5.35493937     5.83678694       region=surface
     23     Pt    13.39848987     7.75543932     5.83678694       region=surface
     24     Pt     2.31105556     1.35410612     3.57357389       region=surface
     25     Pt     3.69698485     3.75460607     3.57357389       region=surface
     26     Pt     5.08291414     6.15510602     3.57357389       region=surface
     27     Pt     5.08291414     1.35410612     3.57357389       region=surface
     28     Pt     6.46884343     3.75460607     3.57357389       region=surface
     29     Pt     7.85477272     6.15510602     3.57357389       region=surface
     30     Pt     7.85477272     1.35410612     3.57357389       region=surface
     31     Pt     9.24070201     3.75460607     3.57357389       region=surface
     32     Pt    10.62663130     6.15510602     3.57357389       region=surface
     33     Pt     3.69698485     2.15427277     1.31036083       region=surface
     34     Pt     5.08291414     4.55477272     1.31036083       region=surface
     35     Pt     6.46884343     6.95527267     1.31036083       region=surface
     36     Pt     6.46884343     2.15427277     1.31036083       region=surface
     37     Pt     7.85477272     4.55477272     1.31036083       region=surface

Lattice vectors (angstrom)
      1     8.31557575     0.00000000     0.00000000
      2     4.15778787     7.20149984     0.00000000

Unit cell area (angstrom^2)        59.88462

Total System Charge             0.00000


Geometry at FIRE step 15:

--------
Geometry
--------
Formula: OPt36
Atoms
  Index Symbol   x (angstrom)   y (angstrom)   z (angstrom)
      1      O     6.46850537     3.75448678     9.23675556       region=adsorbate
      2     Pt     9.24070201     6.95527267     1.31036083       region=surface
      3     Pt     9.24070201     2.15427277     1.31036083       region=surface
      4     Pt    10.62663130     4.55477272     1.31036083       region=surface
      5     Pt    12.01256059     6.95527267     1.31036083       region=surface
      6     Pt     3.69698485     2.15427277     8.10000000       region=surface
      7     Pt     5.08291414     4.55477272     8.10000000       region=surface
      8     Pt     6.46884343     6.95527267     8.10000000       region=surface
      9     Pt     6.46884343     2.15427277     8.10000000       region=surface
     10     Pt     7.85477272     4.55477272     8.10000000       region=surface
     11     Pt     9.24070201     6.95527267     8.10000000       region=surface
     12     Pt     9.24070201     2.15427277     8.10000000       region=surface
     13     Pt    10.62663130     4.55477272     8.10000000       region=surface
     14     Pt    12.01256059     6.95527267     8.10000000       region=surface
     15     Pt     5.08291414     2.95443942     5.83678694       region=surface
     16     Pt     6.46884343     5.35493937     5.83678694       region=surface
     17     Pt     7.85477272     7.75543932     5.83678694       region=surface
     18     Pt     7.85477272     2.95443942     5.83678694       region=surface
     19     Pt     9.24070201     5.35493937     5.83678694       region=surface
     20     Pt    10.62663130     7.75543932     5.83678694       region=surface
     21     Pt    10.62663130     2.95443942     5.83678694       region=surface
     22     Pt    12.01256059     5.35493937     5.83678694       region=surface
     23     Pt    13.39848987     7.75543932     5.83678694       region=surface
     24     Pt     2.31105556     1.35410612     3.57357389       region=surface
     25     Pt     3.69698485     3.75460607     3.57357389       region=surface
     26     Pt     5.08291414     6.15510602     3.57357389       region=surface
     27     Pt     5.08291414     1.35410612     3.57357389       region=surface
     28     Pt     6.46884343     3.75460607     3.57357389       region=surface
     29     Pt     7.85477272     6.15510602     3.57357389       region=surface
     30     Pt     7.85477272     1.35410612     3.57357389       region=surface
     31     Pt     9.24070201     3.75460607     3.57357389       region=surface
     32     Pt    10.62663130     6.15510602     3.57357389       region=surface
     33     Pt     3.69698485     2.15427277     1.31036083       region=surface
     34     Pt     5.08291414     4.55477272     1.31036083       region=surface
     35     Pt     6.46884343     6.95527267     1.31036083       region=surface
     36     Pt     6.46884343     2.15427277     1.31036083       region=surface
     37     Pt     7.85477272     4.55477272     1.31036083       region=surface

Lattice vectors (angstrom)
      1     8.31557575     0.00000000     0.00000000
      2     4.15778787     7.20149984     0.00000000

Unit cell area (angstrom^2)        59.88462

Total System Charge             0.00000


Geometry at FIRE step 16:

--------
Geometry
--------
Formula: OPt36
Atoms
  Index Symbol   x (angstrom)   y (angstrom)   z (angstrom)
      1      O     6.46850893     3.75448804     9.23674853       region=adsorbate
      2     Pt     9.24070201     6.95527267     1.31036083       region=surface
      3     Pt     9.24070201     2.15427277     1.31036083       region=surface
      4     Pt    10.62663130     4.55477272     1.31036083       region=surface
      5     Pt    12.01256059     6.95527267     1.31036083       region=surface
      6     Pt     3.69698485     2.15427277     8.10000000       region=surface
      7     Pt     5.08291414     4.55477272     8.10000000       region=surface
      8     Pt     6.46884343     6.95527267     8.10000000       region=surface
      9     Pt     6.46884343     2.15427277     8.10000000       region=surface
     10     Pt     7.85477272     4.55477272     8.10000000       region=surface
     11     Pt     9.24070201     6.95527267     8.10000000       region=surface
     12     Pt     9.24070201     2.15427277     8.10000000       region=surface
     13     Pt    10.62663130     4.55477272     8.10000000       region=surface
     14     Pt    12.01256059     6.95527267     8.10000000       region=surface
     15     Pt     5.08291414     2.95443942     5.83678694       region=surface
     16     Pt     6.46884343     5.35493937     5.83678694       region=surface
     17     Pt     7.85477272     7.75543932     5.83678694       region=surface
     18     Pt     7.85477272     2.95443942     5.83678694       region=surface
     19     Pt     9.24070201     5.35493937     5.83678694       region=surface
     20     Pt    10.62663130     7.75543932     5.83678694       region=surface
     21     Pt    10.62663130     2.95443942     5.83678694       region=surface
     22     Pt    12.01256059     5.35493937     5.83678694       region=surface
     23     Pt    13.39848987     7.75543932     5.83678694       region=surface
     24     Pt     2.31105556     1.35410612     3.57357389       region=surface
     25     Pt     3.69698485     3.75460607     3.57357389       region=surface
     26     Pt     5.08291414     6.15510602     3.57357389       region=surface
     27     Pt     5.08291414     1.35410612     3.57357389       region=surface
     28     Pt     6.46884343     3.75460607     3.57357389       region=surface
     29     Pt     7.85477272     6.15510602     3.57357389       region=surface
     30     Pt     7.85477272     1.35410612     3.57357389       region=surface
     31     Pt     9.24070201     3.75460607     3.57357389       region=surface
     32     Pt    10.62663130     6.15510602     3.57357389       region=surface
     33     Pt     3.69698485     2.15427277     1.31036083       region=surface
     34     Pt     5.08291414     4.55477272     1.31036083       region=surface
     35     Pt     6.46884343     6.95527267     1.31036083       region=surface
     36     Pt     6.46884343     2.15427277     1.31036083       region=surface
     37     Pt     7.85477272     4.55477272     1.31036083       region=surface

Lattice vectors (angstrom)
      1     8.31557575     0.00000000     0.00000000
      2     4.15778787     7.20149984     0.00000000

Unit cell area (angstrom^2)        59.88462

Total System Charge             0.00000


Geometry at FIRE step 17:

--------
Geometry
--------
Formula: OPt36
Atoms
  Index Symbol   x (angstrom)   y (angstrom)   z (angstrom)
      1      O     6.46851389     3.75448979     9.23673885       region=adsorbate
      2     Pt     9.24070201     6.95527267     1.31036083       region=surface
      3     Pt     9.24070201     2.15427277     1.31036083       region=surface
      4     Pt    10.62663130     4.55477272     1.31036083       region=surface
      5     Pt    12.01256059     6.95527267     1.31036083       region=surface
      6     Pt     3.69698485     2.15427277     8.10000000       region=surface
      7     Pt     5.08291414     4.55477272     8.10000000       region=surface
      8     Pt     6.46884343     6.95527267     8.10000000       region=surface
      9     Pt     6.46884343     2.15427277     8.10000000       region=surface
     10     Pt     7.85477272     4.55477272     8.10000000       region=surface
     11     Pt     9.24070201     6.95527267     8.10000000       region=surface
     12     Pt     9.24070201     2.15427277     8.10000000       region=surface
     13     Pt    10.62663130     4.55477272     8.10000000       region=surface
     14     Pt    12.01256059     6.95527267     8.10000000       region=surface
     15     Pt     5.08291414     2.95443942     5.83678694       region=surface
     16     Pt     6.46884343     5.35493937     5.83678694       region=surface
     17     Pt     7.85477272     7.75543932     5.83678694       region=surface
     18     Pt     7.85477272     2.95443942     5.83678694       region=surface
     19     Pt     9.24070201     5.35493937     5.83678694       region=surface
     20     Pt    10.62663130     7.75543932     5.83678694       region=surface
     21     Pt    10.62663130     2.95443942     5.83678694       region=surface
     22     Pt    12.01256059     5.35493937     5.83678694       region=surface
     23     Pt    13.39848987     7.75543932     5.83678694       region=surface
     24     Pt     2.31105556     1.35410612     3.57357389       region=surface
     25     Pt     3.69698485     3.75460607     3.57357389       region=surface
     26     Pt     5.08291414     6.15510602     3.57357389       region=surface
     27     Pt     5.08291414     1.35410612     3.57357389       region=surface
     28     Pt     6.46884343     3.75460607     3.57357389       region=surface
     29     Pt     7.85477272     6.15510602     3.57357389       region=surface
     30     Pt     7.85477272     1.35410612     3.57357389       region=surface
     31     Pt     9.24070201     3.75460607     3.57357389       region=surface
     32     Pt    10.62663130     6.15510602     3.57357389       region=surface
     33     Pt     3.69698485     2.15427277     1.31036083       region=surface
     34     Pt     5.08291414     4.55477272     1.31036083       region=surface
     35     Pt     6.46884343     6.95527267     1.31036083       region=surface
     36     Pt     6.46884343     2.15427277     1.31036083       region=surface
     37     Pt     7.85477272     4.55477272     1.31036083       region=surface

Lattice vectors (angstrom)
      1     8.31557575     0.00000000     0.00000000
      2     4.15778787     7.20149984     0.00000000

Unit cell area (angstrom^2)        59.88462

Total System Charge             0.00000


Geometry at FIRE step 18:

--------
Geometry
--------
Formula: OPt36
Atoms
  Index Symbol   x (angstrom)   y (angstrom)   z (angstrom)
      1      O     6.46852027     3.75449204     9.23672668       region=adsorbate
      2     Pt     9.24070201     6.95527267     1.31036083       region=surface
      3     Pt     9.24070201     2.15427277     1.31036083       region=surface
      4     Pt    10.62663130     4.55477272     1.31036083       region=surface
      5     Pt    12.01256059     6.95527267     1.31036083       region=surface
      6     Pt     3.69698485     2.15427277     8.10000000       region=surface
      7     Pt     5.08291414     4.55477272     8.10000000       region=surface
      8     Pt     6.46884343     6.95527267     8.10000000       region=surface
      9     Pt     6.46884343     2.15427277     8.10000000       region=surface
     10     Pt     7.85477272     4.55477272     8.10000000       region=surface
     11     Pt     9.24070201     6.95527267     8.10000000       region=surface
     12     Pt     9.24070201     2.15427277     8.10000000       region=surface
     13     Pt    10.62663130     4.55477272     8.10000000       region=surface
     14     Pt    12.01256059     6.95527267     8.10000000       region=surface
     15     Pt     5.08291414     2.95443942     5.83678694       region=surface
     16     Pt     6.46884343     5.35493937     5.83678694       region=surface
     17     Pt     7.85477272     7.75543932     5.83678694       region=surface
     18     Pt     7.85477272     2.95443942     5.83678694       region=surface
     19     Pt     9.24070201     5.35493937     5.83678694       region=surface
     20     Pt    10.62663130     7.75543932     5.83678694       region=surface
     21     Pt    10.62663130     2.95443942     5.83678694       region=surface
     22     Pt    12.01256059     5.35493937     5.83678694       region=surface
     23     Pt    13.39848987     7.75543932     5.83678694       region=surface
     24     Pt     2.31105556     1.35410612     3.57357389       region=surface
     25     Pt     3.69698485     3.75460607     3.57357389       region=surface
     26     Pt     5.08291414     6.15510602     3.57357389       region=surface
     27     Pt     5.08291414     1.35410612     3.57357389       region=surface
     28     Pt     6.46884343     3.75460607     3.57357389       region=surface
     29     Pt     7.85477272     6.15510602     3.57357389       region=surface
     30     Pt     7.85477272     1.35410612     3.57357389       region=surface
     31     Pt     9.24070201     3.75460607     3.57357389       region=surface
     32     Pt    10.62663130     6.15510602     3.57357389       region=surface
     33     Pt     3.69698485     2.15427277     1.31036083       region=surface
     34     Pt     5.08291414     4.55477272     1.31036083       region=surface
     35     Pt     6.46884343     6.95527267     1.31036083       region=surface
     36     Pt     6.46884343     2.15427277     1.31036083       region=surface
     37     Pt     7.85477272     4.55477272     1.31036083       region=surface

Lattice vectors (angstrom)
      1     8.31557575     0.00000000     0.00000000
      2     4.15778787     7.20149984     0.00000000

Unit cell area (angstrom^2)        59.88462

Total System Charge             0.00000


Geometry at FIRE step 19:

--------
Geometry
--------
Formula: OPt36
Atoms
  Index Symbol   x (angstrom)   y (angstrom)   z (angstrom)
      1      O     6.46852804     3.75449478     9.23671223       region=adsorbate
      2     Pt     9.24070201     6.95527267     1.31036083       region=surface
      3     Pt     9.24070201     2.15427277     1.31036083       region=surface
      4     Pt    10.62663130     4.55477272     1.31036083       region=surface
      5     Pt    12.01256059     6.95527267     1.31036083       region=surface
      6     Pt     3.69698485     2.15427277     8.10000000       region=surface
      7     Pt     5.08291414     4.55477272     8.10000000       region=surface
      8     Pt     6.46884343     6.95527267     8.10000000       region=surface
      9     Pt     6.46884343     2.15427277     8.10000000       region=surface
     10     Pt     7.85477272     4.55477272     8.10000000       region=surface
     11     Pt     9.24070201     6.95527267     8.10000000       region=surface
     12     Pt     9.24070201     2.15427277     8.10000000       region=surface
     13     Pt    10.62663130     4.55477272     8.10000000       region=surface
     14     Pt    12.01256059     6.95527267     8.10000000       region=surface
     15     Pt     5.08291414     2.95443942     5.83678694       region=surface
     16     Pt     6.46884343     5.35493937     5.83678694       region=surface
     17     Pt     7.85477272     7.75543932     5.83678694       region=surface
     18     Pt     7.85477272     2.95443942     5.83678694       region=surface
     19     Pt     9.24070201     5.35493937     5.83678694       region=surface
     20     Pt    10.62663130     7.75543932     5.83678694       region=surface
     21     Pt    10.62663130     2.95443942     5.83678694       region=surface
     22     Pt    12.01256059     5.35493937     5.83678694       region=surface
     23     Pt    13.39848987     7.75543932     5.83678694       region=surface
     24     Pt     2.31105556     1.35410612     3.57357389       region=surface
     25     Pt     3.69698485     3.75460607     3.57357389       region=surface
     26     Pt     5.08291414     6.15510602     3.57357389       region=surface
     27     Pt     5.08291414     1.35410612     3.57357389       region=surface
     28     Pt     6.46884343     3.75460607     3.57357389       region=surface
     29     Pt     7.85477272     6.15510602     3.57357389       region=surface
     30     Pt     7.85477272     1.35410612     3.57357389       region=surface
     31     Pt     9.24070201     3.75460607     3.57357389       region=surface
     32     Pt    10.62663130     6.15510602     3.57357389       region=surface
     33     Pt     3.69698485     2.15427277     1.31036083       region=surface
     34     Pt     5.08291414     4.55477272     1.31036083       region=surface
     35     Pt     6.46884343     6.95527267     1.31036083       region=surface
     36     Pt     6.46884343     2.15427277     1.31036083       region=surface
     37     Pt     7.85477272     4.55477272     1.31036083       region=surface

Lattice vectors (angstrom)
      1     8.31557575     0.00000000     0.00000000
      2     4.15778787     7.20149984     0.00000000

Unit cell area (angstrom^2)        59.88462

Total System Charge             0.00000


Geometry at FIRE step 20:

--------
Geometry
--------
Formula: OPt36
Atoms
  Index Symbol   x (angstrom)   y (angstrom)   z (angstrom)
      1      O     6.46853823     3.75449838     9.23669399       region=adsorbate
      2     Pt     9.24070201     6.95527267     1.31036083       region=surface
      3     Pt     9.24070201     2.15427277     1.31036083       region=surface
      4     Pt    10.62663130     4.55477272     1.31036083       region=surface
      5     Pt    12.01256059     6.95527267     1.31036083       region=surface
      6     Pt     3.69698485     2.15427277     8.10000000       region=surface
      7     Pt     5.08291414     4.55477272     8.10000000       region=surface
      8     Pt     6.46884343     6.95527267     8.10000000       region=surface
      9     Pt     6.46884343     2.15427277     8.10000000       region=surface
     10     Pt     7.85477272     4.55477272     8.10000000       region=surface
     11     Pt     9.24070201     6.95527267     8.10000000       region=surface
     12     Pt     9.24070201     2.15427277     8.10000000       region=surface
     13     Pt    10.62663130     4.55477272     8.10000000       region=surface
     14     Pt    12.01256059     6.95527267     8.10000000       region=surface
     15     Pt     5.08291414     2.95443942     5.83678694       region=surface
     16     Pt     6.46884343     5.35493937     5.83678694       region=surface
     17     Pt     7.85477272     7.75543932     5.83678694       region=surface
     18     Pt     7.85477272     2.95443942     5.83678694       region=surface
     19     Pt     9.24070201     5.35493937     5.83678694       region=surface
     20     Pt    10.62663130     7.75543932     5.83678694       region=surface
     21     Pt    10.62663130     2.95443942     5.83678694       region=surface
     22     Pt    12.01256059     5.35493937     5.83678694       region=surface
     23     Pt    13.39848987     7.75543932     5.83678694       region=surface
     24     Pt     2.31105556     1.35410612     3.57357389       region=surface
     25     Pt     3.69698485     3.75460607     3.57357389       region=surface
     26     Pt     5.08291414     6.15510602     3.57357389       region=surface
     27     Pt     5.08291414     1.35410612     3.57357389       region=surface
     28     Pt     6.46884343     3.75460607     3.57357389       region=surface
     29     Pt     7.85477272     6.15510602     3.57357389       region=surface
     30     Pt     7.85477272     1.35410612     3.57357389       region=surface
     31     Pt     9.24070201     3.75460607     3.57357389       region=surface
     32     Pt    10.62663130     6.15510602     3.57357389       region=surface
     33     Pt     3.69698485     2.15427277     1.31036083       region=surface
     34     Pt     5.08291414     4.55477272     1.31036083       region=surface
     35     Pt     6.46884343     6.95527267     1.31036083       region=surface
     36     Pt     6.46884343     2.15427277     1.31036083       region=surface
     37     Pt     7.85477272     4.55477272     1.31036083       region=surface

Lattice vectors (angstrom)
      1     8.31557575     0.00000000     0.00000000
      2     4.15778787     7.20149984     0.00000000

Unit cell area (angstrom^2)        59.88462

Total System Charge             0.00000


Geometry at FIRE step 21:

--------
Geometry
--------
Formula: OPt36
Atoms
  Index Symbol   x (angstrom)   y (angstrom)   z (angstrom)
      1      O     6.46855142     3.75450303     9.23667156       region=adsorbate
      2     Pt     9.24070201     6.95527267     1.31036083       region=surface
      3     Pt     9.24070201     2.15427277     1.31036083       region=surface
      4     Pt    10.62663130     4.55477272     1.31036083       region=surface
      5     Pt    12.01256059     6.95527267     1.31036083       region=surface
      6     Pt     3.69698485     2.15427277     8.10000000       region=surface
      7     Pt     5.08291414     4.55477272     8.10000000       region=surface
      8     Pt     6.46884343     6.95527267     8.10000000       region=surface
      9     Pt     6.46884343     2.15427277     8.10000000       region=surface
     10     Pt     7.85477272     4.55477272     8.10000000       region=surface
     11     Pt     9.24070201     6.95527267     8.10000000       region=surface
     12     Pt     9.24070201     2.15427277     8.10000000       region=surface
     13     Pt    10.62663130     4.55477272     8.10000000       region=surface
     14     Pt    12.01256059     6.95527267     8.10000000       region=surface
     15     Pt     5.08291414     2.95443942     5.83678694       region=surface
     16     Pt     6.46884343     5.35493937     5.83678694       region=surface
     17     Pt     7.85477272     7.75543932     5.83678694       region=surface
     18     Pt     7.85477272     2.95443942     5.83678694       region=surface
     19     Pt     9.24070201     5.35493937     5.83678694       region=surface
     20     Pt    10.62663130     7.75543932     5.83678694       region=surface
     21     Pt    10.62663130     2.95443942     5.83678694       region=surface
     22     Pt    12.01256059     5.35493937     5.83678694       region=surface
     23     Pt    13.39848987     7.75543932     5.83678694       region=surface
     24     Pt     2.31105556     1.35410612     3.57357389       region=surface
     25     Pt     3.69698485     3.75460607     3.57357389       region=surface
     26     Pt     5.08291414     6.15510602     3.57357389       region=surface
     27     Pt     5.08291414     1.35410612     3.57357389       region=surface
     28     Pt     6.46884343     3.75460607     3.57357389       region=surface
     29     Pt     7.85477272     6.15510602     3.57357389       region=surface
     30     Pt     7.85477272     1.35410612     3.57357389       region=surface
     31     Pt     9.24070201     3.75460607     3.57357389       region=surface
     32     Pt    10.62663130     6.15510602     3.57357389       region=surface
     33     Pt     3.69698485     2.15427277     1.31036083       region=surface
     34     Pt     5.08291414     4.55477272     1.31036083       region=surface
     35     Pt     6.46884343     6.95527267     1.31036083       region=surface
     36     Pt     6.46884343     2.15427277     1.31036083       region=surface
     37     Pt     7.85477272     4.55477272     1.31036083       region=surface

Lattice vectors (angstrom)
      1     8.31557575     0.00000000     0.00000000
      2     4.15778787     7.20149984     0.00000000

Unit cell area (angstrom^2)        59.88462

Total System Charge             0.00000


Geometry at FIRE step 22:

--------
Geometry
--------
Formula: OPt36
Atoms
  Index Symbol   x (angstrom)   y (angstrom)   z (angstrom)
      1      O     6.46856836     3.75450901     9.23664472       region=adsorbate
      2     Pt     9.24070201     6.95527267     1.31036083       region=surface
      3     Pt     9.24070201     2.15427277     1.31036083       region=surface
      4     Pt    10.62663130     4.55477272     1.31036083       region=surface
      5     Pt    12.01256059     6.95527267     1.31036083       region=surface
      6     Pt     3.69698485     2.15427277     8.10000000       region=surface
      7     Pt     5.08291414     4.55477272     8.10000000       region=surface
      8     Pt     6.46884343     6.95527267     8.10000000       region=surface
      9     Pt     6.46884343     2.15427277     8.10000000       region=surface
[...]
      4     Pt    10.62663098     4.55477258     1.31036083       region=surface
      5     Pt    12.01256022     6.95527245     1.31036083       region=surface
      6     Pt     3.69698474     2.15427270     8.10000000       region=surface
      7     Pt     5.08291398     4.55477258     8.10000000       region=surface
      8     Pt     6.46884323     6.95527245     8.10000000       region=surface
      9     Pt     6.46884323     2.15427270     8.10000000       region=surface
     10     Pt     7.85477248     4.55477258     8.10000000       region=surface
     11     Pt     9.24070173     6.95527245     8.10000000       region=surface
     12     Pt     9.24070173     2.15427270     8.10000000       region=surface
     13     Pt    10.62663098     4.55477258     8.10000000       region=surface
     14     Pt    12.01256022     6.95527245     8.10000000       region=surface
     15     Pt     5.08291399     2.95443933     5.83678694       region=surface
     16     Pt     6.46884323     5.35493920     5.83678694       region=surface
     17     Pt     7.85477248     7.75543908     5.83678694       region=surface
     18     Pt     7.85477248     2.95443933     5.83678694       region=surface
     19     Pt     9.24070173     5.35493920     5.83678694       region=surface
     20     Pt    10.62663098     7.75543908     5.83678694       region=surface
     21     Pt    10.62663098     2.95443933     5.83678694       region=surface
     22     Pt    12.01256023     5.35493920     5.83678694       region=surface
     23     Pt    13.39848946     7.75543908     5.83678694       region=surface
     24     Pt     2.31105549     1.35410608     3.57357389       region=surface
     25     Pt     3.69698474     3.75460595     3.57357389       region=surface
     26     Pt     5.08291398     6.15510583     3.57357389       region=surface
     27     Pt     5.08291399     1.35410608     3.57357389       region=surface
     28     Pt     6.46884323     3.75460595     3.57357389       region=surface
     29     Pt     7.85477248     6.15510583     3.57357389       region=surface
     30     Pt     7.85477248     1.35410608     3.57357389       region=surface
     31     Pt     9.24070173     3.75460595     3.57357389       region=surface
     32     Pt    10.62663098     6.15510583     3.57357389       region=surface
     33     Pt     3.69698474     2.15427270     1.31036083       region=surface
     34     Pt     5.08291398     4.55477258     1.31036083       region=surface
     35     Pt     6.46884323     6.95527245     1.31036083       region=surface
     36     Pt     6.46884323     2.15427270     1.31036083       region=surface
     37     Pt     7.85477248     4.55477258     1.31036083       region=surface

Lattice vectors (angstrom)
      1     8.31557575     0.00000000     0.00000000
      2     4.15778787     7.20149984     0.00000000

Unit cell area (angstrom^2)        59.88462

Total System Charge             0.00000

--------------------
Optimizing adsorbate
--------------------

------------------
Optimizing surface
------------------


Relaxing 0 nuclear degrees of freedom with FIRE.
 Rigid motions settings for: FIRE
 Atomic rotations (x,y,z):     F F F
 Atomic translations (x,y,z):  F F F
 Tolerance:                    9.9999999999999995E-007
Rank   volume(%)   N atoms
   0       26.99        10
   1       25.16         8
   2       24.76         8
   3       23.09        10
 Local atoms:          10 , including ghost atoms:          36
 Local Verlet list:        1275 local (incl my-other) pairs,        60 self-pairs      1082 foreign my-other pairs,       807 foreign other-other pairs
Geometry optimization did NOT converge

Last geometry (not converged):

--------
Geometry
--------
Formula: Pt36
Atoms
  Index Symbol   x (angstrom)   y (angstrom)   z (angstrom)
      1     Pt     9.24070173     6.95527245     1.31036083       region=surface
      2     Pt     9.24070173     2.15427270     1.31036083       region=surface
      3     Pt    10.62663098     4.55477258     1.31036083       region=surface
      4     Pt    12.01256022     6.95527245     1.31036083       region=surface
      5     Pt     3.69698474     2.15427270     8.10000000       region=surface
      6     Pt     5.08291398     4.55477258     8.10000000       region=surface
      7     Pt     6.46884323     6.95527245     8.10000000       region=surface
      8     Pt     6.46884323     2.15427270     8.10000000       region=surface
      9     Pt     7.85477248     4.55477258     8.10000000       region=surface
     10     Pt     9.24070173     6.95527245     8.10000000       region=surface
     11     Pt     9.24070173     2.15427270     8.10000000       region=surface
     12     Pt    10.62663098     4.55477258     8.10000000       region=surface
     13     Pt    12.01256022     6.95527245     8.10000000       region=surface
     14     Pt     5.08291399     2.95443933     5.83678694       region=surface
     15     Pt     6.46884323     5.35493920     5.83678694       region=surface
     16     Pt     7.85477248     7.75543908     5.83678694       region=surface
     17     Pt     7.85477248     2.95443933     5.83678694       region=surface
     18     Pt     9.24070173     5.35493920     5.83678694       region=surface
     19     Pt    10.62663098     7.75543908     5.83678694       region=surface
     20     Pt    10.62663098     2.95443933     5.83678694       region=surface
     21     Pt    12.01256023     5.35493920     5.83678694       region=surface
     22     Pt    13.39848946     7.75543908     5.83678694       region=surface
     23     Pt     2.31105549     1.35410608     3.57357389       region=surface
     24     Pt     3.69698474     3.75460595     3.57357389       region=surface
     25     Pt     5.08291398     6.15510583     3.57357389       region=surface
     26     Pt     5.08291399     1.35410608     3.57357389       region=surface
     27     Pt     6.46884323     3.75460595     3.57357389       region=surface
     28     Pt     7.85477248     6.15510583     3.57357389       region=surface
     29     Pt     7.85477248     1.35410608     3.57357389       region=surface
     30     Pt     9.24070173     3.75460595     3.57357389       region=surface
     31     Pt    10.62663098     6.15510583     3.57357389       region=surface
     32     Pt     3.69698474     2.15427270     1.31036083       region=surface
     33     Pt     5.08291398     4.55477258     1.31036083       region=surface
     34     Pt     6.46884323     6.95527245     1.31036083       region=surface
     35     Pt     6.46884323     2.15427270     1.31036083       region=surface
     36     Pt     7.85477248     4.55477258     1.31036083       region=surface

Lattice vectors (angstrom)
      1     8.31557575     0.00000000     0.00000000
      2     4.15778787     7.20149984     0.00000000

Unit cell area (angstrom^2)        59.88462

Total System Charge             0.00000


Fragments calculations:

 Geometry symmetrized to: C1
 Geometry reoriented with symmetry: ATOM
 Geometry symmetrized to: C1
 Geometry reoriented with symmetry: ATOM
      Id             Formula   Success         Energy      DB
   ----------------------------------------------------------
       1                   O         T    -0.00399301     OLD
       2                Pt36         F    -7.15428639     OLD

   Fragmented state: OLD

 
Saving database on KF file ... OK
 
Saving fragments on KF file ... OK
 
----------------------
Final Energy Landscape
----------------------

        Id        Energy(a.u.)         RE(eV)   RE(kcal/mol)    Counts    Crit. point
     --------------------------------------------------------------------------------
         1           -7.278562        0.00000         0.0000         1            Min
         2           -7.271255        0.19881         4.5847         1            Min
         3           -7.252826        0.70030        16.1493        36             TS 1<-->2       1.92E+13:1.72E+13*  

*) Pre-exponential factors forward and backward in s^-1 or Hz

Number of configurations                             3
Number of local minima                               2
Number of transition states                          1
Energy range (a.u.)                           0.025736
Energy range (eV)                              0.70030
Energy range (kcal/mol)                        16.1493

Fragments
---------

Number of fragments                                  2

        Id             Formula        Energy(a.u.)              Region
     -----------------------------------------------------------------
         1                   O           -0.003993              active
         2                Pt36           -7.154286             surface

Fragmented States
-----------------

Number of fragmented states                          1

        Id           Fragments        Energy(a.u.)         RE(eV)   RE(kcal/mol)
     ---------------------------------------------------------------------------
         1                 1,2           -7.158279        3.27304        75.4782 -->1         1.07E+07:2.58E+14*
                                                                                 -->2         1.07E+07:2.31E+14 


*) Pre-exponential factors adsorption in (bar*s)^-1 and desorption in s^-1 or Hz

Configurations
--------------
37
Id 1 Energy(hartree)     -7.27856154 Min
 O        6.46856836171115       3.75450901229505       9.23664472336429
 Pt       9.24070201000001       6.95527267000000       1.31036083000002
 Pt       9.24070201000001       2.15427277000000       1.31036083000002
 Pt      10.62663130000000       4.55477272000000       1.31036083000002
 Pt      12.01256059000000       6.95527267000000       1.31036083000002
 Pt       3.69698485000000       2.15427277000000       8.10000000000002
 Pt       5.08291414000000       4.55477272000000       8.10000000000002
 Pt       6.46884343000000       6.95527267000000       8.10000000000002
 Pt       6.46884343000000       2.15427277000000       8.10000000000002
 Pt       7.85477272000000       4.55477272000000       8.10000000000002
 Pt       9.24070201000001       6.95527267000000       8.10000000000002
 Pt       9.24070201000001       2.15427277000000       8.10000000000002
 Pt      10.62663130000000       4.55477272000000       8.10000000000002
 Pt      12.01256059000000       6.95527267000000       8.10000000000002
 Pt       5.08291414000000       2.95443942000000       5.83678694000002
 Pt       6.46884343000000       5.35493937000000       5.83678694000002
 Pt       7.85477272000000       7.75543932000000       5.83678694000002
 Pt       7.85477272000000       2.95443942000000       5.83678694000002
 Pt       9.24070201000001       5.35493937000000       5.83678694000002
 Pt      10.62663130000000       7.75543932000000       5.83678694000002
 Pt      10.62663130000001       2.95443942000000       5.83678694000002
 Pt      12.01256059000000       5.35493937000000       5.83678694000002
 Pt      13.39848987000001       7.75543932000000       5.83678694000002
 Pt       2.31105556000000       1.35410612000000       3.57357389000002
 Pt       3.69698485000000       3.75460607000000       3.57357389000002
 Pt       5.08291414000000       6.15510602000000       3.57357389000002
 Pt       5.08291414000000       1.35410612000000       3.57357389000002
 Pt       6.46884343000000       3.75460607000000       3.57357389000002
 Pt       7.85477272000000       6.15510602000000       3.57357389000002
 Pt       7.85477272000000       1.35410612000000       3.57357389000002
 Pt       9.24070201000001       3.75460607000000       3.57357389000002
 Pt      10.62663130000001       6.15510602000000       3.57357389000002
 Pt       3.69698485000000       2.15427277000000       1.31036083000002
 Pt       5.08291414000000       4.55477272000000       1.31036083000002
 Pt       6.46884343000000       6.95527267000000       1.31036083000002
 Pt       6.46884343000000       2.15427277000000       1.31036083000002
 Pt       7.85477272000000       4.55477272000000       1.31036083000002
VEC1       8.31557575000000       0.00000000000000       0.00000000000000
VEC2       4.15778787000000       7.20149984000000       0.00000000000000
37
Id 2 Energy(hartree)     -7.27125529 Min
 O        5.08315262373833       2.95457777780617       9.22890916730891
 Pt       9.24070172725317       6.95527245441613       1.31036083000002
 Pt       9.24070173058651       2.15427270314958       1.31036083000002
 Pt      10.62663097725317       4.55477257878286       1.31036083000002
 Pt      12.01256022391984       6.95527245441613       1.31036083000002
 Pt       3.69698473725317       2.15427270314958       8.10000000000001
 Pt       5.08291398391983       4.55477257878286       8.10000000000001
 Pt       6.46884323058650       6.95527245441613       8.10000000000001
 Pt       6.46884323391983       2.15427270314958       8.10000000000001
 Pt       7.85477248058650       4.55477257878286       8.10000000000001
 Pt       9.24070172725317       6.95527245441613       8.10000000000001
 Pt       9.24070173058651       2.15427270314958       8.10000000000001
 Pt      10.62663097725317       4.55477257878286       8.10000000000001
 Pt      12.01256022391984       6.95527245441613       8.10000000000001
 Pt       5.08291398503095       2.95443932836068       5.83678694000002
 Pt       6.46884323169761       5.35493920399395       5.83678694000002
 Pt       7.85477247962118       7.75543908096797       5.83678694000002
 Pt       7.85477248169761       2.95443932836068       5.83678694000002
 Pt       9.24070172836428       5.35493920399395       5.83678694000002
 Pt      10.62663097628785       7.75543908096797       5.83678694000002
 Pt      10.62663097836428       2.95443932836068       5.83678694000002
 Pt      12.01256022503095       5.35493920399395       5.83678694000002
 Pt      13.39848946295452       7.75543908096797       5.83678694000002
 Pt       2.31105548947539       1.35410607793850       3.57357389000001
 Pt       3.69698473614205       3.75460595357177       3.57357389000001
 Pt       5.08291398280872       6.15510582920504       3.57357389000001
 Pt       5.08291398614206       1.35410607793850       3.57357389000001
 Pt       6.46884323280872       3.75460595357177       3.57357389000001
 Pt       7.85477247947538       6.15510582920504       3.57357389000001
 Pt       7.85477248280872       1.35410607793850       3.57357389000001
 Pt       9.24070172947540       3.75460595357177       3.57357389000001
 Pt      10.62663097614206       6.15510582920504       3.57357389000001
 Pt       3.69698473725316       2.15427270314958       1.31036083000002
 Pt       5.08291398391983       4.55477257878286       1.31036083000002
 Pt       6.46884323058650       6.95527245441613       1.31036083000002
 Pt       6.46884323391983       2.15427270314958       1.31036083000002
 Pt       7.85477248058650       4.55477257878286       1.31036083000002
VEC1       8.31557575000000       0.00000000000000       0.00000000000000
VEC2       4.15778787000000       7.20149984000000       0.00000000000000
37
Id 3 Energy(hartree)     -7.25282600 TS
 O        5.59332684365339       3.25011938825997       9.39395224546302
 Pt       9.24070172725317       6.95527245441613       1.31036083000002
 Pt       9.24070173058651       2.15427270314958       1.31036083000002
 Pt      10.62663097725317       4.55477257878286       1.31036083000002
 Pt      12.01256022391984       6.95527245441613       1.31036083000002
 Pt       3.69698473725317       2.15427270314958       8.10000000000001
 Pt       5.08291398391983       4.55477257878286       8.10000000000001
 Pt       6.46884323058650       6.95527245441613       8.10000000000001
 Pt       6.46884323391983       2.15427270314958       8.10000000000001
 Pt       7.85477248058650       4.55477257878286       8.10000000000001
 Pt       9.24070172725317       6.95527245441613       8.10000000000001
 Pt       9.24070173058651       2.15427270314958       8.10000000000001
 Pt      10.62663097725317       4.55477257878286       8.10000000000001
 Pt      12.01256022391984       6.95527245441613       8.10000000000001
 Pt       5.08291398503095       2.95443932836068       5.83678694000002
 Pt       6.46884323169761       5.35493920399395       5.83678694000002
 Pt       7.85477247962118       7.75543908096797       5.83678694000002
 Pt       7.85477248169761       2.95443932836068       5.83678694000002
 Pt       9.24070172836428       5.35493920399395       5.83678694000002
 Pt      10.62663097628785       7.75543908096797       5.83678694000002
 Pt      10.62663097836428       2.95443932836068       5.83678694000002
 Pt      12.01256022503095       5.35493920399395       5.83678694000002
 Pt      13.39848946295452       7.75543908096797       5.83678694000002
 Pt       2.31105548947539       1.35410607793850       3.57357389000001
 Pt       3.69698473614205       3.75460595357177       3.57357389000001
 Pt       5.08291398280872       6.15510582920504       3.57357389000001
 Pt       5.08291398614206       1.35410607793850       3.57357389000001
 Pt       6.46884323280872       3.75460595357177       3.57357389000001
 Pt       7.85477247947538       6.15510582920504       3.57357389000001
 Pt       7.85477248280872       1.35410607793850       3.57357389000001
 Pt       9.24070172947540       3.75460595357177       3.57357389000001
 Pt      10.62663097614206       6.15510582920504       3.57357389000001
 Pt       3.69698473725316       2.15427270314958       1.31036083000002
 Pt       5.08291398391983       4.55477257878286       1.31036083000002
 Pt       6.46884323058650       6.95527245441613       1.31036083000002
 Pt       6.46884323391983       2.15427270314958       1.31036083000002
 Pt       7.85477248058650       4.55477257878286       1.31036083000002
VEC1       8.31557575000000       0.00000000000000       0.00000000000000
VEC2       4.15778787000000       7.20149984000000       0.00000000000000

-------------------------
Binding Sites Computation
-------------------------

> Sorting Binding Sites ... DONE


-----------------------
Binding Sites Per State
-----------------------

Number of binding sites:                             4
Number of connections:                               1

Binding sites:

   id   Label   State    Atom   Energy(a.u.)              x              y              z
    1      N9       1       1      -7.278562        6.46857        3.75451        9.23664
    2      N7       2       1      -7.271255        5.08315        2.95458        9.22891
    3      N9       1       1      -7.278562        6.46857        3.75451        9.23664
    4      N7       2       1      -7.271255        5.08315        2.95458        9.22891

Connections:

   id  Source  Target       ld
    1       3       4     0  0

-------------
Binding Sites
-------------

Number of binding sites:                             2
Number of connections:                               1

Binding sites:

   id   Label   Aver.E(a.u.)  Stdev.E(a.u.)              x              y              z     Parents
    1      N7      -7.271255       0.000000        5.08315        2.95458        9.22891     2(1)
    2      N9      -7.278562       0.000000        6.46857        3.75451        9.23664     1(1)

Binding sites (fractional):

   id   Label   Aver.E(a.u.)  Stdev.E(a.u.)              x              y              z     Parents
    1      N7      -7.271255       0.000000        0.40614        0.41027       17.44011     2(1)
    2      N9      -7.278562       0.000000        0.51721        0.52135       17.45473     1(1)

Connections:

   id  Source  Target       ld
    1       2       1     0  0

AMS application finished. Exiting.
NORMAL TERMINATION
     Total cpu time:     122.36
  Total system time:       2.56
 Total elapsed time:     130.10
